
Host: MacLeo

Timers On : Wed Dec 10 22:29:05 2025
Timers Off: Wed Dec 10 22:29:06 2025

Wall Time:        1.81 seconds

                                                       Time (seconds)
Module                                       User      System        Wall        Calls
Total PK formation time             :      0.633u      0.017s      0.392w      1 calls
Libint2ERI::Libint2ERI              :      0.017u      0.017s      0.012w      2 calls
HF: Form core H                     :      0.017u      0.000s      0.005w      1 calls
HF: Form S/X                        :      0.000u      0.000s      0.001w      1 calls
HF: Guess                           :      0.017u      0.000s      0.027w      1 calls
SAD Guess                           :      0.017u      0.000s      0.026w      1 calls
HF: Form G                          :      0.017u      0.000s      0.029w     17 calls
JK: D                               :      0.000u      0.000s      0.000w     17 calls
JK: USO2AO                          :      0.000u      0.000s      0.000w     17 calls
JK: JK                              :      0.017u      0.000s      0.028w     17 calls
PK computes JK                      :      0.017u      0.000s      0.028w     17 calls
JK: AO2USO                          :      0.000u      0.000s      0.000w     17 calls
HF: Form F                          :      0.000u      0.000s      0.000w     17 calls
HF: Form D                          :      0.000u      0.000s      0.000w     17 calls
HF: DIIS                            :      0.483u      0.117s      0.649w     16 calls
HF: Form C                          :      0.000u      0.000s      0.006w     16 calls

--------------------------------------------------------------------------------------
Total PK formation time             :      0.633u      0.017s      0.392w      1 calls
| Libint2ERI::Libint2ERI            :      0.017u      0.017s      0.012w      2 calls
HF: Form core H                     :      0.017u      0.000s      0.005w      1 calls
HF: Form S/X                        :      0.000u      0.000s      0.001w      1 calls
HF: Guess                           :      0.017u      0.000s      0.027w      1 calls
| SAD Guess                         :      0.017u      0.000s      0.026w      1 calls
HF: Form G                          :      0.017u      0.000s      0.029w     17 calls
| JK: D                             :      0.000u      0.000s      0.000w     17 calls
| JK: USO2AO                        :      0.000u      0.000s      0.000w     17 calls
| JK: JK                            :      0.017u      0.000s      0.028w     17 calls
| | PK computes JK                  :      0.017u      0.000s      0.028w     17 calls
| JK: AO2USO                        :      0.000u      0.000s      0.000w     17 calls
HF: Form F                          :      0.000u      0.000s      0.000w     17 calls
HF: Form D                          :      0.000u      0.000s      0.000w     17 calls
HF: DIIS                            :      0.483u      0.117s      0.649w     16 calls
HF: Form C                          :      0.000u      0.000s      0.006w     16 calls

**************************************************************************************

Host: MacLeo

Timers On : Wed Dec 10 22:29:07 2025
Timers Off: Wed Dec 10 22:29:08 2025

Wall Time:        0.85 seconds

                                                       Time (seconds)
Module                                       User      System        Wall        Calls
Total PK formation time             :      0.167u      0.000s      0.101w      1 calls
Libint2ERI::Libint2ERI              :      0.017u      0.000s      0.003w      2 calls
HF: Form core H                     :      0.000u      0.000s      0.001w      1 calls
HF: Form S/X                        :      0.000u      0.000s      0.000w      1 calls
HF: Guess                           :      0.017u      0.000s      0.010w      1 calls
SAD Guess                           :      0.000u      0.000s      0.009w      1 calls
HF: Form G                          :      0.000u      0.000s      0.004w     11 calls
JK: D                               :      0.000u      0.000s      0.000w     11 calls
JK: USO2AO                          :      0.000u      0.000s      0.000w     11 calls
JK: JK                              :      0.000u      0.000s      0.004w     11 calls
PK computes JK                      :      0.000u      0.000s      0.004w     11 calls
JK: AO2USO                          :      0.000u      0.000s      0.000w     11 calls
HF: Form F                          :      0.000u      0.000s      0.000w     11 calls
HF: Form D                          :      0.000u      0.000s      0.000w     11 calls
HF: DIIS                            :      0.417u      0.067s      0.293w     10 calls
HF: Form C                          :      0.000u      0.000s      0.002w     10 calls

--------------------------------------------------------------------------------------
Total PK formation time             :      0.167u      0.000s      0.101w      1 calls
| Libint2ERI::Libint2ERI            :      0.017u      0.000s      0.003w      2 calls
HF: Form core H                     :      0.000u      0.000s      0.001w      1 calls
HF: Form S/X                        :      0.000u      0.000s      0.000w      1 calls
HF: Guess                           :      0.017u      0.000s      0.010w      1 calls
| SAD Guess                         :      0.000u      0.000s      0.009w      1 calls
HF: Form G                          :      0.000u      0.000s      0.004w     11 calls
| JK: D                             :      0.000u      0.000s      0.000w     11 calls
| JK: USO2AO                        :      0.000u      0.000s      0.000w     11 calls
| JK: JK                            :      0.000u      0.000s      0.004w     11 calls
| | PK computes JK                  :      0.000u      0.000s      0.004w     11 calls
| JK: AO2USO                        :      0.000u      0.000s      0.000w     11 calls
HF: Form F                          :      0.000u      0.000s      0.000w     11 calls
HF: Form D                          :      0.000u      0.000s      0.000w     11 calls
HF: DIIS                            :      0.417u      0.067s      0.293w     10 calls
HF: Form C                          :      0.000u      0.000s      0.002w     10 calls

**************************************************************************************

Host: MacLeo

Timers On : Wed Dec 10 22:29:08 2025
Timers Off: Wed Dec 10 22:29:09 2025

Wall Time:        0.81 seconds

                                                       Time (seconds)
Module                                       User      System        Wall        Calls
Total PK formation time             :      0.117u      0.000s      0.068w      1 calls
Libint2ERI::Libint2ERI              :      0.017u      0.000s      0.003w      2 calls
HF: Form core H                     :      0.000u      0.000s      0.001w      1 calls
HF: Form S/X                        :      0.000u      0.000s      0.000w      1 calls
HF: Guess                           :      0.017u      0.000s      0.010w      1 calls
SAD Guess                           :      0.017u      0.000s      0.009w      1 calls
HF: Form G                          :      0.000u      0.000s      0.002w     10 calls
JK: D                               :      0.000u      0.000s      0.000w     10 calls
JK: USO2AO                          :      0.000u      0.000s      0.000w     10 calls
JK: JK                              :      0.000u      0.000s      0.002w     10 calls
PK computes JK                      :      0.000u      0.000s      0.002w     10 calls
JK: AO2USO                          :      0.000u      0.000s      0.000w     10 calls
HF: Form F                          :      0.000u      0.000s      0.000w     10 calls
HF: Form D                          :      0.000u      0.000s      0.000w     10 calls
HF: DIIS                            :      0.417u      0.067s      0.290w      9 calls
HF: Form C                          :      0.000u      0.000s      0.002w      9 calls

--------------------------------------------------------------------------------------
Total PK formation time             :      0.117u      0.000s      0.068w      1 calls
| Libint2ERI::Libint2ERI            :      0.017u      0.000s      0.003w      2 calls
HF: Form core H                     :      0.000u      0.000s      0.001w      1 calls
HF: Form S/X                        :      0.000u      0.000s      0.000w      1 calls
HF: Guess                           :      0.017u      0.000s      0.010w      1 calls
| SAD Guess                         :      0.017u      0.000s      0.009w      1 calls
HF: Form G                          :      0.000u      0.000s      0.002w     10 calls
| JK: D                             :      0.000u      0.000s      0.000w     10 calls
| JK: USO2AO                        :      0.000u      0.000s      0.000w     10 calls
| JK: JK                            :      0.000u      0.000s      0.002w     10 calls
| | PK computes JK                  :      0.000u      0.000s      0.002w     10 calls
| JK: AO2USO                        :      0.000u      0.000s      0.000w     10 calls
HF: Form F                          :      0.000u      0.000s      0.000w     10 calls
HF: Form D                          :      0.000u      0.000s      0.000w     10 calls
HF: DIIS                            :      0.417u      0.067s      0.290w      9 calls
HF: Form C                          :      0.000u      0.000s      0.002w      9 calls

**************************************************************************************

Host: MacLeo

Timers On : Wed Dec 10 22:29:10 2025
Timers Off: Wed Dec 10 22:29:10 2025

Wall Time:        0.82 seconds

                                                       Time (seconds)
Module                                       User      System        Wall        Calls
Total PK formation time             :      0.117u      0.000s      0.068w      1 calls
Libint2ERI::Libint2ERI              :      0.017u      0.000s      0.003w      2 calls
HF: Form core H                     :      0.000u      0.000s      0.001w      1 calls
HF: Form S/X                        :      0.000u      0.000s      0.000w      1 calls
HF: Guess                           :      0.017u      0.000s      0.010w      1 calls
SAD Guess                           :      0.017u      0.000s      0.009w      1 calls
HF: Form G                          :      0.000u      0.000s      0.002w     11 calls
JK: D                               :      0.000u      0.000s      0.000w     11 calls
JK: USO2AO                          :      0.000u      0.000s      0.000w     11 calls
JK: JK                              :      0.000u      0.000s      0.002w     11 calls
PK computes JK                      :      0.000u      0.000s      0.002w     11 calls
JK: AO2USO                          :      0.000u      0.000s      0.000w     11 calls
HF: Form F                          :      0.000u      0.000s      0.000w     11 calls
HF: Form D                          :      0.000u      0.000s      0.000w     11 calls
HF: DIIS                            :      0.417u      0.067s      0.295w     10 calls
HF: Form C                          :      0.000u      0.000s      0.002w     10 calls

--------------------------------------------------------------------------------------
Total PK formation time             :      0.117u      0.000s      0.068w      1 calls
| Libint2ERI::Libint2ERI            :      0.017u      0.000s      0.003w      2 calls
HF: Form core H                     :      0.000u      0.000s      0.001w      1 calls
HF: Form S/X                        :      0.000u      0.000s      0.000w      1 calls
HF: Guess                           :      0.017u      0.000s      0.010w      1 calls
| SAD Guess                         :      0.017u      0.000s      0.009w      1 calls
HF: Form G                          :      0.000u      0.000s      0.002w     11 calls
| JK: D                             :      0.000u      0.000s      0.000w     11 calls
| JK: USO2AO                        :      0.000u      0.000s      0.000w     11 calls
| JK: JK                            :      0.000u      0.000s      0.002w     11 calls
| | PK computes JK                  :      0.000u      0.000s      0.002w     11 calls
| JK: AO2USO                        :      0.000u      0.000s      0.000w     11 calls
HF: Form F                          :      0.000u      0.000s      0.000w     11 calls
HF: Form D                          :      0.000u      0.000s      0.000w     11 calls
HF: DIIS                            :      0.417u      0.067s      0.295w     10 calls
HF: Form C                          :      0.000u      0.000s      0.002w     10 calls

**************************************************************************************

Host: MacLeo

Timers On : Wed Dec 10 22:29:11 2025
Timers Off: Wed Dec 10 22:29:12 2025

Wall Time:        0.82 seconds

                                                       Time (seconds)
Module                                       User      System        Wall        Calls
Total PK formation time             :      0.117u      0.000s      0.068w      1 calls
Libint2ERI::Libint2ERI              :      0.017u      0.000s      0.003w      2 calls
HF: Form core H                     :      0.000u      0.000s      0.001w      1 calls
HF: Form S/X                        :      0.000u      0.000s      0.000w      1 calls
HF: Guess                           :      0.017u      0.000s      0.010w      1 calls
SAD Guess                           :      0.017u      0.000s      0.009w      1 calls
HF: Form G                          :      0.000u      0.000s      0.002w     10 calls
JK: D                               :      0.000u      0.000s      0.000w     10 calls
JK: USO2AO                          :      0.000u      0.000s      0.000w     10 calls
JK: JK                              :      0.000u      0.000s      0.002w     10 calls
PK computes JK                      :      0.000u      0.000s      0.001w     10 calls
JK: AO2USO                          :      0.000u      0.000s      0.000w     10 calls
HF: Form F                          :      0.000u      0.000s      0.000w     10 calls
HF: Form D                          :      0.000u      0.000s      0.000w     10 calls
HF: DIIS                            :      0.433u      0.067s      0.292w      9 calls
HF: Form C                          :      0.000u      0.000s      0.002w      9 calls

--------------------------------------------------------------------------------------
Total PK formation time             :      0.117u      0.000s      0.068w      1 calls
| Libint2ERI::Libint2ERI            :      0.017u      0.000s      0.003w      2 calls
HF: Form core H                     :      0.000u      0.000s      0.001w      1 calls
HF: Form S/X                        :      0.000u      0.000s      0.000w      1 calls
HF: Guess                           :      0.017u      0.000s      0.010w      1 calls
| SAD Guess                         :      0.017u      0.000s      0.009w      1 calls
HF: Form G                          :      0.000u      0.000s      0.002w     10 calls
| JK: D                             :      0.000u      0.000s      0.000w     10 calls
| JK: USO2AO                        :      0.000u      0.000s      0.000w     10 calls
| JK: JK                            :      0.000u      0.000s      0.002w     10 calls
| | PK computes JK                  :      0.000u      0.000s      0.001w     10 calls
| JK: AO2USO                        :      0.000u      0.000s      0.000w     10 calls
HF: Form F                          :      0.000u      0.000s      0.000w     10 calls
HF: Form D                          :      0.000u      0.000s      0.000w     10 calls
HF: DIIS                            :      0.433u      0.067s      0.292w      9 calls
HF: Form C                          :      0.000u      0.000s      0.002w      9 calls

**************************************************************************************

Host: MacLeo

Timers On : Wed Dec 10 22:29:12 2025
Timers Off: Wed Dec 10 22:29:13 2025

Wall Time:        0.82 seconds

                                                       Time (seconds)
Module                                       User      System        Wall        Calls
Total PK formation time             :      0.117u      0.000s      0.068w      1 calls
Libint2ERI::Libint2ERI              :      0.000u      0.000s      0.003w      2 calls
HF: Form core H                     :      0.000u      0.017s      0.001w      1 calls
HF: Form S/X                        :      0.000u      0.000s      0.000w      1 calls
HF: Guess                           :      0.017u      0.000s      0.010w      1 calls
SAD Guess                           :      0.017u      0.000s      0.009w      1 calls
HF: Form G                          :      0.000u      0.000s      0.002w     10 calls
JK: D                               :      0.000u      0.000s      0.000w     10 calls
JK: USO2AO                          :      0.000u      0.000s      0.000w     10 calls
JK: JK                              :      0.000u      0.000s      0.001w     10 calls
PK computes JK                      :      0.000u      0.000s      0.001w     10 calls
JK: AO2USO                          :      0.000u      0.000s      0.000w     10 calls
HF: Form F                          :      0.000u      0.000s      0.000w     10 calls
HF: Form D                          :      0.000u      0.000s      0.000w     10 calls
HF: DIIS                            :      0.433u      0.067s      0.293w      9 calls
HF: Form C                          :      0.000u      0.000s      0.002w      9 calls

--------------------------------------------------------------------------------------
Total PK formation time             :      0.117u      0.000s      0.068w      1 calls
| Libint2ERI::Libint2ERI            :      0.000u      0.000s      0.003w      2 calls
HF: Form core H                     :      0.000u      0.017s      0.001w      1 calls
HF: Form S/X                        :      0.000u      0.000s      0.000w      1 calls
HF: Guess                           :      0.017u      0.000s      0.010w      1 calls
| SAD Guess                         :      0.017u      0.000s      0.009w      1 calls
HF: Form G                          :      0.000u      0.000s      0.002w     10 calls
| JK: D                             :      0.000u      0.000s      0.000w     10 calls
| JK: USO2AO                        :      0.000u      0.000s      0.000w     10 calls
| JK: JK                            :      0.000u      0.000s      0.001w     10 calls
| | PK computes JK                  :      0.000u      0.000s      0.001w     10 calls
| JK: AO2USO                        :      0.000u      0.000s      0.000w     10 calls
HF: Form F                          :      0.000u      0.000s      0.000w     10 calls
HF: Form D                          :      0.000u      0.000s      0.000w     10 calls
HF: DIIS                            :      0.433u      0.067s      0.293w      9 calls
HF: Form C                          :      0.000u      0.000s      0.002w      9 calls

**************************************************************************************

Host: MacLeo

Timers On : Wed Dec 10 22:29:13 2025
Timers Off: Wed Dec 10 22:29:16 2025

Wall Time:        2.61 seconds

                                                       Time (seconds)
Module                                       User      System        Wall        Calls
Total PK formation time             :      2.017u      0.000s      1.218w      1 calls
Libint2ERI::Libint2ERI              :      0.033u      0.000s      0.017w      2 calls
HF: Form core H                     :      0.017u      0.000s      0.011w      1 calls
HF: Form S/X                        :      0.000u      0.000s      0.001w      1 calls
HF: Guess                           :      0.033u      0.017s      0.026w      1 calls
SAD Guess                           :      0.033u      0.017s      0.026w      1 calls
HF: Form G                          :      0.467u      0.000s      0.283w     19 calls
JK: D                               :      0.017u      0.000s      0.001w     19 calls
JK: USO2AO                          :      0.000u      0.000s      0.000w     19 calls
JK: JK                              :      0.450u      0.000s      0.282w     19 calls
PK computes JK                      :      0.450u      0.000s      0.282w     19 calls
JK: AO2USO                          :      0.000u      0.000s      0.000w     19 calls
HF: Form F                          :      0.000u      0.000s      0.000w     19 calls
HF: Form D                          :      0.000u      0.000s      0.000w     19 calls
HF: DIIS                            :      0.450u      0.083s      0.329w     18 calls
HF: Form C                          :      0.033u      0.000s      0.018w     18 calls

--------------------------------------------------------------------------------------
Total PK formation time             :      2.017u      0.000s      1.218w      1 calls
| Libint2ERI::Libint2ERI            :      0.033u      0.000s      0.017w      2 calls
HF: Form core H                     :      0.017u      0.000s      0.011w      1 calls
HF: Form S/X                        :      0.000u      0.000s      0.001w      1 calls
HF: Guess                           :      0.033u      0.017s      0.026w      1 calls
| SAD Guess                         :      0.033u      0.017s      0.026w      1 calls
HF: Form G                          :      0.467u      0.000s      0.283w     19 calls
| JK: D                             :      0.017u      0.000s      0.001w     19 calls
| JK: USO2AO                        :      0.000u      0.000s      0.000w     19 calls
| JK: JK                            :      0.450u      0.000s      0.282w     19 calls
| | PK computes JK                  :      0.450u      0.000s      0.282w     19 calls
| JK: AO2USO                        :      0.000u      0.000s      0.000w     19 calls
HF: Form F                          :      0.000u      0.000s      0.000w     19 calls
HF: Form D                          :      0.000u      0.000s      0.000w     19 calls
HF: DIIS                            :      0.450u      0.083s      0.329w     18 calls
HF: Form C                          :      0.033u      0.000s      0.018w     18 calls

**************************************************************************************

Host: MacLeo

Timers On : Wed Dec 10 22:29:17 2025
Timers Off: Wed Dec 10 22:29:17 2025

Wall Time:        0.70 seconds

                                                       Time (seconds)
Module                                       User      System        Wall        Calls
Total PK formation time             :      0.017u      0.000s      0.008w      1 calls
Libint2ERI::Libint2ERI              :      0.000u      0.000s      0.001w      2 calls
HF: Form core H                     :      0.000u      0.000s      0.001w      1 calls
HF: Form S/X                        :      0.000u      0.000s      0.000w      1 calls
HF: Guess                           :      0.017u      0.000s      0.010w      1 calls
SAD Guess                           :      0.017u      0.000s      0.009w      1 calls
HF: Form G                          :      0.000u      0.000s      0.000w      9 calls
JK: D                               :      0.000u      0.000s      0.000w      9 calls
JK: USO2AO                          :      0.000u      0.000s      0.000w      9 calls
JK: JK                              :      0.000u      0.000s      0.000w      9 calls
PK computes JK                      :      0.000u      0.000s      0.000w      9 calls
JK: AO2USO                          :      0.000u      0.000s      0.000w      9 calls
HF: Form F                          :      0.000u      0.000s      0.000w      9 calls
HF: Form D                          :      0.000u      0.000s      0.000w      9 calls
HF: DIIS                            :      0.400u      0.067s      0.295w      8 calls
HF: Form C                          :      0.000u      0.000s      0.001w      8 calls

--------------------------------------------------------------------------------------
Total PK formation time             :      0.017u      0.000s      0.008w      1 calls
| Libint2ERI::Libint2ERI            :      0.000u      0.000s      0.001w      2 calls
HF: Form core H                     :      0.000u      0.000s      0.001w      1 calls
HF: Form S/X                        :      0.000u      0.000s      0.000w      1 calls
HF: Guess                           :      0.017u      0.000s      0.010w      1 calls
| SAD Guess                         :      0.017u      0.000s      0.009w      1 calls
HF: Form G                          :      0.000u      0.000s      0.000w      9 calls
| JK: D                             :      0.000u      0.000s      0.000w      9 calls
| JK: USO2AO                        :      0.000u      0.000s      0.000w      9 calls
| JK: JK                            :      0.000u      0.000s      0.000w      9 calls
| | PK computes JK                  :      0.000u      0.000s      0.000w      9 calls
| JK: AO2USO                        :      0.000u      0.000s      0.000w      9 calls
HF: Form F                          :      0.000u      0.000s      0.000w      9 calls
HF: Form D                          :      0.000u      0.000s      0.000w      9 calls
HF: DIIS                            :      0.400u      0.067s      0.295w      8 calls
HF: Form C                          :      0.000u      0.000s      0.001w      8 calls

**************************************************************************************

Host: MacLeo

Timers On : Wed Dec 10 22:29:18 2025
Timers Off: Wed Dec 10 22:30:04 2025

Wall Time:       46.62 seconds

                                                       Time (seconds)
Module                                       User      System        Wall        Calls
Total PK formation time             :     46.800u      1.883s     29.097w      1 calls
Libint2ERI::Libint2ERI              :      0.133u      0.050s      0.073w      2 calls
HF: Form core H                     :      0.167u      0.033s      0.099w      1 calls
HF: Form S/X                        :      0.000u      0.000s      0.007w      1 calls
HF: Guess                           :      0.017u      0.017s      0.014w      1 calls
SAD Guess                           :      0.017u      0.017s      0.013w      1 calls
HF: Form G                          :      8.750u     12.050s     14.529w     21 calls
JK: D                               :      0.000u      0.000s      0.003w     21 calls
JK: USO2AO                          :      0.000u      0.000s      0.000w     21 calls
JK: JK                              :      8.750u     12.050s     14.524w     21 calls
PK computes JK                      :      8.750u     12.050s     14.524w     21 calls
AIO synchronize                     :      0.000u      0.000s      0.000w      1 calls
JK: AO2USO                          :      0.000u      0.000s      0.000w     21 calls
HF: Form F                          :      0.000u      0.000s      0.000w     21 calls
HF: Form D                          :      0.000u      0.000s      0.003w     21 calls
HF: DIIS                            :      0.483u      0.117s      0.526w     20 calls
HF: Form C                          :      0.217u      0.000s      0.123w     20 calls

--------------------------------------------------------------------------------------
Total PK formation time             :     46.800u      1.883s     29.097w      1 calls
| Libint2ERI::Libint2ERI            :      0.133u      0.050s      0.073w      2 calls
HF: Form core H                     :      0.167u      0.033s      0.099w      1 calls
HF: Form S/X                        :      0.000u      0.000s      0.007w      1 calls
HF: Guess                           :      0.017u      0.017s      0.014w      1 calls
| SAD Guess                         :      0.017u      0.017s      0.013w      1 calls
HF: Form G                          :      8.750u     12.050s     14.529w     21 calls
| JK: D                             :      0.000u      0.000s      0.003w     21 calls
| JK: USO2AO                        :      0.000u      0.000s      0.000w     21 calls
| JK: JK                            :      8.750u     12.050s     14.524w     21 calls
| | PK computes JK                  :      8.750u     12.050s     14.524w     21 calls
| | | AIO synchronize               :      0.000u      0.000s      0.000w      1 calls
| JK: AO2USO                        :      0.000u      0.000s      0.000w     21 calls
HF: Form F                          :      0.000u      0.000s      0.000w     21 calls
HF: Form D                          :      0.000u      0.000s      0.003w     21 calls
HF: DIIS                            :      0.483u      0.117s      0.526w     20 calls
HF: Form C                          :      0.217u      0.000s      0.123w     20 calls

**************************************************************************************

Host: MacLeo

Timers On : Wed Dec 10 22:30:05 2025
Timers Off: Wed Dec 10 22:30:06 2025

Wall Time:        1.06 seconds

                                                       Time (seconds)
Module                                       User      System        Wall        Calls
Total PK formation time             :      0.067u      0.000s      0.049w      1 calls
Libint2ERI::Libint2ERI              :      0.000u      0.000s      0.002w      2 calls
HF: Form core H                     :      0.000u      0.000s      0.001w      1 calls
HF: Form S/X                        :      0.017u      0.000s      0.000w      1 calls
HF: Guess                           :      0.017u      0.000s      0.015w      1 calls
SAD Guess                           :      0.017u      0.000s      0.015w      1 calls
HF: Form G                          :      0.000u      0.000s      0.001w     11 calls
JK: D                               :      0.000u      0.000s      0.000w     11 calls
JK: USO2AO                          :      0.000u      0.000s      0.000w     11 calls
JK: JK                              :      0.000u      0.000s      0.001w     11 calls
PK computes JK                      :      0.000u      0.000s      0.001w     11 calls
JK: AO2USO                          :      0.000u      0.000s      0.000w     11 calls
HF: Form F                          :      0.000u      0.000s      0.000w     11 calls
HF: Form D                          :      0.000u      0.000s      0.000w     11 calls
HF: DIIS                            :      0.400u      0.083s      0.366w     10 calls
HF: Form C                          :      0.000u      0.000s      0.002w     10 calls

--------------------------------------------------------------------------------------
Total PK formation time             :      0.067u      0.000s      0.049w      1 calls
| Libint2ERI::Libint2ERI            :      0.000u      0.000s      0.002w      2 calls
HF: Form core H                     :      0.000u      0.000s      0.001w      1 calls
HF: Form S/X                        :      0.017u      0.000s      0.000w      1 calls
HF: Guess                           :      0.017u      0.000s      0.015w      1 calls
| SAD Guess                         :      0.017u      0.000s      0.015w      1 calls
HF: Form G                          :      0.000u      0.000s      0.001w     11 calls
| JK: D                             :      0.000u      0.000s      0.000w     11 calls
| JK: USO2AO                        :      0.000u      0.000s      0.000w     11 calls
| JK: JK                            :      0.000u      0.000s      0.001w     11 calls
| | PK computes JK                  :      0.000u      0.000s      0.001w     11 calls
| JK: AO2USO                        :      0.000u      0.000s      0.000w     11 calls
HF: Form F                          :      0.000u      0.000s      0.000w     11 calls
HF: Form D                          :      0.000u      0.000s      0.000w     11 calls
HF: DIIS                            :      0.400u      0.083s      0.366w     10 calls
HF: Form C                          :      0.000u      0.000s      0.002w     10 calls

**************************************************************************************

Host: MacLeo

Timers On : Wed Dec 10 22:30:07 2025
Timers Off: Wed Dec 10 22:30:07 2025

Wall Time:        0.68 seconds

                                                       Time (seconds)
Module                                       User      System        Wall        Calls
Total PK formation time             :      0.000u      0.000s      0.002w      1 calls
Libint2ERI::Libint2ERI              :      0.000u      0.000s      0.000w      2 calls
HF: Form core H                     :      0.000u      0.000s      0.000w      1 calls
HF: Form S/X                        :      0.000u      0.000s      0.000w      1 calls
HF: Guess                           :      0.017u      0.000s      0.010w      1 calls
SAD Guess                           :      0.017u      0.000s      0.010w      1 calls
HF: Form G                          :      0.000u      0.000s      0.000w      7 calls
JK: D                               :      0.000u      0.000s      0.000w      7 calls
JK: USO2AO                          :      0.000u      0.000s      0.000w      7 calls
JK: JK                              :      0.000u      0.000s      0.000w      7 calls
PK computes JK                      :      0.000u      0.000s      0.000w      7 calls
JK: AO2USO                          :      0.000u      0.000s      0.000w      7 calls
HF: Form F                          :      0.000u      0.000s      0.000w      7 calls
HF: Form D                          :      0.000u      0.000s      0.000w      7 calls
HF: DIIS                            :      0.400u      0.067s      0.288w      6 calls
HF: Form C                          :      0.000u      0.000s      0.001w      6 calls

--------------------------------------------------------------------------------------
Total PK formation time             :      0.000u      0.000s      0.002w      1 calls
| Libint2ERI::Libint2ERI            :      0.000u      0.000s      0.000w      2 calls
HF: Form core H                     :      0.000u      0.000s      0.000w      1 calls
HF: Form S/X                        :      0.000u      0.000s      0.000w      1 calls
HF: Guess                           :      0.017u      0.000s      0.010w      1 calls
| SAD Guess                         :      0.017u      0.000s      0.010w      1 calls
HF: Form G                          :      0.000u      0.000s      0.000w      7 calls
| JK: D                             :      0.000u      0.000s      0.000w      7 calls
| JK: USO2AO                        :      0.000u      0.000s      0.000w      7 calls
| JK: JK                            :      0.000u      0.000s      0.000w      7 calls
| | PK computes JK                  :      0.000u      0.000s      0.000w      7 calls
| JK: AO2USO                        :      0.000u      0.000s      0.000w      7 calls
HF: Form F                          :      0.000u      0.000s      0.000w      7 calls
HF: Form D                          :      0.000u      0.000s      0.000w      7 calls
HF: DIIS                            :      0.400u      0.067s      0.288w      6 calls
HF: Form C                          :      0.000u      0.000s      0.001w      6 calls

**************************************************************************************

Host: MacLeo

Timers On : Wed Dec 10 22:30:08 2025
Timers Off: Wed Dec 10 22:30:09 2025

Wall Time:        0.75 seconds

                                                       Time (seconds)
Module                                       User      System        Wall        Calls
Total PK formation time             :      0.050u      0.000s      0.026w      1 calls
Libint2ERI::Libint2ERI              :      0.017u      0.000s      0.002w      2 calls
HF: Form core H                     :      0.000u      0.000s      0.001w      1 calls
HF: Form S/X                        :      0.000u      0.000s      0.000w      1 calls
HF: Guess                           :      0.017u      0.000s      0.010w      1 calls
SAD Guess                           :      0.017u      0.000s      0.010w      1 calls
HF: Form G                          :      0.000u      0.000s      0.001w     10 calls
JK: D                               :      0.000u      0.000s      0.000w     10 calls
JK: USO2AO                          :      0.000u      0.000s      0.000w     10 calls
JK: JK                              :      0.000u      0.000s      0.000w     10 calls
PK computes JK                      :      0.000u      0.000s      0.000w     10 calls
JK: AO2USO                          :      0.000u      0.000s      0.000w     10 calls
HF: Form F                          :      0.000u      0.000s      0.000w     10 calls
HF: Form D                          :      0.000u      0.000s      0.000w     10 calls
HF: DIIS                            :      0.433u      0.067s      0.293w      9 calls
HF: Form C                          :      0.000u      0.000s      0.002w      9 calls

--------------------------------------------------------------------------------------
Total PK formation time             :      0.050u      0.000s      0.026w      1 calls
| Libint2ERI::Libint2ERI            :      0.017u      0.000s      0.002w      2 calls
HF: Form core H                     :      0.000u      0.000s      0.001w      1 calls
HF: Form S/X                        :      0.000u      0.000s      0.000w      1 calls
HF: Guess                           :      0.017u      0.000s      0.010w      1 calls
| SAD Guess                         :      0.017u      0.000s      0.010w      1 calls
HF: Form G                          :      0.000u      0.000s      0.001w     10 calls
| JK: D                             :      0.000u      0.000s      0.000w     10 calls
| JK: USO2AO                        :      0.000u      0.000s      0.000w     10 calls
| JK: JK                            :      0.000u      0.000s      0.000w     10 calls
| | PK computes JK                  :      0.000u      0.000s      0.000w     10 calls
| JK: AO2USO                        :      0.000u      0.000s      0.000w     10 calls
HF: Form F                          :      0.000u      0.000s      0.000w     10 calls
HF: Form D                          :      0.000u      0.000s      0.000w     10 calls
HF: DIIS                            :      0.433u      0.067s      0.293w      9 calls
HF: Form C                          :      0.000u      0.000s      0.002w      9 calls

**************************************************************************************

Host: MacLeo

Timers On : Wed Dec 10 22:30:09 2025
Timers Off: Wed Dec 10 22:30:10 2025

Wall Time:        0.80 seconds

                                                       Time (seconds)
Module                                       User      System        Wall        Calls
Total PK formation time             :      0.083u      0.000s      0.049w      1 calls
Libint2ERI::Libint2ERI              :      0.017u      0.000s      0.002w      2 calls
HF: Form core H                     :      0.000u      0.000s      0.001w      1 calls
HF: Form S/X                        :      0.000u      0.000s      0.000w      1 calls
HF: Guess                           :      0.033u      0.000s      0.015w      1 calls
SAD Guess                           :      0.033u      0.000s      0.015w      1 calls
HF: Form G                          :      0.017u      0.000s      0.001w     12 calls
JK: D                               :      0.000u      0.000s      0.000w     12 calls
JK: USO2AO                          :      0.000u      0.000s      0.000w     12 calls
JK: JK                              :      0.017u      0.000s      0.001w     12 calls
PK computes JK                      :      0.017u      0.000s      0.001w     12 calls
JK: AO2USO                          :      0.000u      0.000s      0.000w     12 calls
HF: Form F                          :      0.000u      0.000s      0.000w     12 calls
HF: Form D                          :      0.000u      0.000s      0.000w     12 calls
HF: DIIS                            :      0.433u      0.067s      0.298w     11 calls
HF: Form C                          :      0.000u      0.000s      0.002w     11 calls

--------------------------------------------------------------------------------------
Total PK formation time             :      0.083u      0.000s      0.049w      1 calls
| Libint2ERI::Libint2ERI            :      0.017u      0.000s      0.002w      2 calls
HF: Form core H                     :      0.000u      0.000s      0.001w      1 calls
HF: Form S/X                        :      0.000u      0.000s      0.000w      1 calls
HF: Guess                           :      0.033u      0.000s      0.015w      1 calls
| SAD Guess                         :      0.033u      0.000s      0.015w      1 calls
HF: Form G                          :      0.017u      0.000s      0.001w     12 calls
| JK: D                             :      0.000u      0.000s      0.000w     12 calls
| JK: USO2AO                        :      0.000u      0.000s      0.000w     12 calls
| JK: JK                            :      0.017u      0.000s      0.001w     12 calls
| | PK computes JK                  :      0.017u      0.000s      0.001w     12 calls
| JK: AO2USO                        :      0.000u      0.000s      0.000w     12 calls
HF: Form F                          :      0.000u      0.000s      0.000w     12 calls
HF: Form D                          :      0.000u      0.000s      0.000w     12 calls
HF: DIIS                            :      0.433u      0.067s      0.298w     11 calls
HF: Form C                          :      0.000u      0.000s      0.002w     11 calls

**************************************************************************************

Host: MacLeo

Timers On : Wed Dec 10 22:30:10 2025
Timers Off: Wed Dec 10 22:30:12 2025

Wall Time:        1.25 seconds

                                                       Time (seconds)
Module                                       User      System        Wall        Calls
Total PK formation time             :      0.633u      0.000s      0.387w      1 calls
Libint2ERI::Libint2ERI              :      0.000u      0.000s      0.006w      2 calls
HF: Form core H                     :      0.000u      0.000s      0.004w      1 calls
HF: Form S/X                        :      0.000u      0.000s      0.000w      1 calls
HF: Guess                           :      0.017u      0.000s      0.011w      1 calls
SAD Guess                           :      0.017u      0.000s      0.010w      1 calls
HF: Form G                          :      0.017u      0.000s      0.011w     10 calls
JK: D                               :      0.000u      0.000s      0.000w     10 calls
JK: USO2AO                          :      0.000u      0.000s      0.000w     10 calls
JK: JK                              :      0.017u      0.000s      0.011w     10 calls
PK computes JK                      :      0.017u      0.000s      0.011w     10 calls
JK: AO2USO                          :      0.000u      0.000s      0.000w     10 calls
HF: Form F                          :      0.000u      0.000s      0.000w     10 calls
HF: Form D                          :      0.000u      0.000s      0.000w     10 calls
HF: DIIS                            :      0.417u      0.067s      0.294w      9 calls
HF: Form C                          :      0.000u      0.000s      0.003w      9 calls

--------------------------------------------------------------------------------------
Total PK formation time             :      0.633u      0.000s      0.387w      1 calls
| Libint2ERI::Libint2ERI            :      0.000u      0.000s      0.006w      2 calls
HF: Form core H                     :      0.000u      0.000s      0.004w      1 calls
HF: Form S/X                        :      0.000u      0.000s      0.000w      1 calls
HF: Guess                           :      0.017u      0.000s      0.011w      1 calls
| SAD Guess                         :      0.017u      0.000s      0.010w      1 calls
HF: Form G                          :      0.017u      0.000s      0.011w     10 calls
| JK: D                             :      0.000u      0.000s      0.000w     10 calls
| JK: USO2AO                        :      0.000u      0.000s      0.000w     10 calls
| JK: JK                            :      0.017u      0.000s      0.011w     10 calls
| | PK computes JK                  :      0.017u      0.000s      0.011w     10 calls
| JK: AO2USO                        :      0.000u      0.000s      0.000w     10 calls
HF: Form F                          :      0.000u      0.000s      0.000w     10 calls
HF: Form D                          :      0.000u      0.000s      0.000w     10 calls
HF: DIIS                            :      0.417u      0.067s      0.294w      9 calls
HF: Form C                          :      0.000u      0.000s      0.003w      9 calls

**************************************************************************************

Host: MacLeo

Timers On : Wed Dec 10 22:48:27 2025
Timers Off: Wed Dec 10 22:48:29 2025

Wall Time:        1.83 seconds

                                                       Time (seconds)
Module                                       User      System        Wall        Calls
Total PK formation time             :      0.633u      0.017s      0.390w      1 calls
Libint2ERI::Libint2ERI              :      0.000u      0.000s      0.013w      2 calls
HF: Form core H                     :      0.000u      0.000s      0.006w      1 calls
HF: Form S/X                        :      0.000u      0.000s      0.001w      1 calls
HF: Guess                           :      0.033u      0.000s      0.027w      1 calls
SAD Guess                           :      0.033u      0.000s      0.026w      1 calls
HF: Form G                          :      0.067u      0.000s      0.028w     17 calls
JK: D                               :      0.000u      0.000s      0.000w     17 calls
JK: USO2AO                          :      0.000u      0.000s      0.000w     17 calls
JK: JK                              :      0.067u      0.000s      0.027w     17 calls
PK computes JK                      :      0.067u      0.000s      0.027w     17 calls
JK: AO2USO                          :      0.000u      0.000s      0.000w     17 calls
HF: Form F                          :      0.000u      0.000s      0.000w     17 calls
HF: Form D                          :      0.000u      0.000s      0.000w     17 calls
HF: DIIS                            :      0.417u      0.117s      0.709w     16 calls
HF: Form C                          :      0.017u      0.000s      0.006w     16 calls

--------------------------------------------------------------------------------------
Total PK formation time             :      0.633u      0.017s      0.390w      1 calls
| Libint2ERI::Libint2ERI            :      0.000u      0.000s      0.013w      2 calls
HF: Form core H                     :      0.000u      0.000s      0.006w      1 calls
HF: Form S/X                        :      0.000u      0.000s      0.001w      1 calls
HF: Guess                           :      0.033u      0.000s      0.027w      1 calls
| SAD Guess                         :      0.033u      0.000s      0.026w      1 calls
HF: Form G                          :      0.067u      0.000s      0.028w     17 calls
| JK: D                             :      0.000u      0.000s      0.000w     17 calls
| JK: USO2AO                        :      0.000u      0.000s      0.000w     17 calls
| JK: JK                            :      0.067u      0.000s      0.027w     17 calls
| | PK computes JK                  :      0.067u      0.000s      0.027w     17 calls
| JK: AO2USO                        :      0.000u      0.000s      0.000w     17 calls
HF: Form F                          :      0.000u      0.000s      0.000w     17 calls
HF: Form D                          :      0.000u      0.000s      0.000w     17 calls
HF: DIIS                            :      0.417u      0.117s      0.709w     16 calls
HF: Form C                          :      0.017u      0.000s      0.006w     16 calls

**************************************************************************************

Host: MacLeo

Timers On : Wed Dec 10 22:48:30 2025
Timers Off: Wed Dec 10 22:48:31 2025

Wall Time:        0.83 seconds

                                                       Time (seconds)
Module                                       User      System        Wall        Calls
Total PK formation time             :      0.167u      0.000s      0.100w      1 calls
Libint2ERI::Libint2ERI              :      0.000u      0.000s      0.003w      2 calls
HF: Form core H                     :      0.000u      0.000s      0.001w      1 calls
HF: Form S/X                        :      0.000u      0.000s      0.000w      1 calls
HF: Guess                           :      0.017u      0.017s      0.010w      1 calls
SAD Guess                           :      0.017u      0.017s      0.010w      1 calls
HF: Form G                          :      0.000u      0.000s      0.004w     11 calls
JK: D                               :      0.000u      0.000s      0.000w     11 calls
JK: USO2AO                          :      0.000u      0.000s      0.000w     11 calls
JK: JK                              :      0.000u      0.000s      0.004w     11 calls
PK computes JK                      :      0.000u      0.000s      0.004w     11 calls
JK: AO2USO                          :      0.000u      0.000s      0.000w     11 calls
HF: Form F                          :      0.000u      0.000s      0.000w     11 calls
HF: Form D                          :      0.000u      0.000s      0.000w     11 calls
HF: DIIS                            :      0.417u      0.067s      0.288w     10 calls
HF: Form C                          :      0.000u      0.000s      0.002w     10 calls

--------------------------------------------------------------------------------------
Total PK formation time             :      0.167u      0.000s      0.100w      1 calls
| Libint2ERI::Libint2ERI            :      0.000u      0.000s      0.003w      2 calls
HF: Form core H                     :      0.000u      0.000s      0.001w      1 calls
HF: Form S/X                        :      0.000u      0.000s      0.000w      1 calls
HF: Guess                           :      0.017u      0.017s      0.010w      1 calls
| SAD Guess                         :      0.017u      0.017s      0.010w      1 calls
HF: Form G                          :      0.000u      0.000s      0.004w     11 calls
| JK: D                             :      0.000u      0.000s      0.000w     11 calls
| JK: USO2AO                        :      0.000u      0.000s      0.000w     11 calls
| JK: JK                            :      0.000u      0.000s      0.004w     11 calls
| | PK computes JK                  :      0.000u      0.000s      0.004w     11 calls
| JK: AO2USO                        :      0.000u      0.000s      0.000w     11 calls
HF: Form F                          :      0.000u      0.000s      0.000w     11 calls
HF: Form D                          :      0.000u      0.000s      0.000w     11 calls
HF: DIIS                            :      0.417u      0.067s      0.288w     10 calls
HF: Form C                          :      0.000u      0.000s      0.002w     10 calls

**************************************************************************************

Host: MacLeo

Timers On : Wed Dec 10 22:48:31 2025
Timers Off: Wed Dec 10 22:48:32 2025

Wall Time:        0.80 seconds

                                                       Time (seconds)
Module                                       User      System        Wall        Calls
Total PK formation time             :      0.117u      0.000s      0.067w      1 calls
Libint2ERI::Libint2ERI              :      0.000u      0.000s      0.003w      2 calls
HF: Form core H                     :      0.000u      0.000s      0.001w      1 calls
HF: Form S/X                        :      0.000u      0.000s      0.000w      1 calls
HF: Guess                           :      0.017u      0.000s      0.010w      1 calls
SAD Guess                           :      0.017u      0.000s      0.009w      1 calls
HF: Form G                          :      0.000u      0.000s      0.002w     10 calls
JK: D                               :      0.000u      0.000s      0.000w     10 calls
JK: USO2AO                          :      0.000u      0.000s      0.000w     10 calls
JK: JK                              :      0.000u      0.000s      0.002w     10 calls
PK computes JK                      :      0.000u      0.000s      0.002w     10 calls
JK: AO2USO                          :      0.000u      0.000s      0.000w     10 calls
HF: Form F                          :      0.000u      0.000s      0.000w     10 calls
HF: Form D                          :      0.000u      0.000s      0.000w     10 calls
HF: DIIS                            :      0.400u      0.067s      0.284w      9 calls
HF: Form C                          :      0.000u      0.000s      0.002w      9 calls

--------------------------------------------------------------------------------------
Total PK formation time             :      0.117u      0.000s      0.067w      1 calls
| Libint2ERI::Libint2ERI            :      0.000u      0.000s      0.003w      2 calls
HF: Form core H                     :      0.000u      0.000s      0.001w      1 calls
HF: Form S/X                        :      0.000u      0.000s      0.000w      1 calls
HF: Guess                           :      0.017u      0.000s      0.010w      1 calls
| SAD Guess                         :      0.017u      0.000s      0.009w      1 calls
HF: Form G                          :      0.000u      0.000s      0.002w     10 calls
| JK: D                             :      0.000u      0.000s      0.000w     10 calls
| JK: USO2AO                        :      0.000u      0.000s      0.000w     10 calls
| JK: JK                            :      0.000u      0.000s      0.002w     10 calls
| | PK computes JK                  :      0.000u      0.000s      0.002w     10 calls
| JK: AO2USO                        :      0.000u      0.000s      0.000w     10 calls
HF: Form F                          :      0.000u      0.000s      0.000w     10 calls
HF: Form D                          :      0.000u      0.000s      0.000w     10 calls
HF: DIIS                            :      0.400u      0.067s      0.284w      9 calls
HF: Form C                          :      0.000u      0.000s      0.002w      9 calls

**************************************************************************************

Host: MacLeo

Timers On : Wed Dec 10 22:48:32 2025
Timers Off: Wed Dec 10 22:48:33 2025

Wall Time:        0.80 seconds

                                                       Time (seconds)
Module                                       User      System        Wall        Calls
Total PK formation time             :      0.117u      0.000s      0.068w      1 calls
Libint2ERI::Libint2ERI              :      0.017u      0.000s      0.002w      2 calls
HF: Form core H                     :      0.000u      0.000s      0.001w      1 calls
HF: Form S/X                        :      0.000u      0.000s      0.000w      1 calls
HF: Guess                           :      0.017u      0.000s      0.010w      1 calls
SAD Guess                           :      0.017u      0.000s      0.009w      1 calls
HF: Form G                          :      0.017u      0.000s      0.002w     11 calls
JK: D                               :      0.000u      0.000s      0.000w     11 calls
JK: USO2AO                          :      0.000u      0.000s      0.000w     11 calls
JK: JK                              :      0.017u      0.000s      0.002w     11 calls
PK computes JK                      :      0.017u      0.000s      0.002w     11 calls
JK: AO2USO                          :      0.000u      0.000s      0.000w     11 calls
HF: Form F                          :      0.000u      0.000s      0.000w     11 calls
HF: Form D                          :      0.000u      0.000s      0.000w     11 calls
HF: DIIS                            :      0.417u      0.067s      0.286w     10 calls
HF: Form C                          :      0.000u      0.000s      0.002w     10 calls

--------------------------------------------------------------------------------------
Total PK formation time             :      0.117u      0.000s      0.068w      1 calls
| Libint2ERI::Libint2ERI            :      0.017u      0.000s      0.002w      2 calls
HF: Form core H                     :      0.000u      0.000s      0.001w      1 calls
HF: Form S/X                        :      0.000u      0.000s      0.000w      1 calls
HF: Guess                           :      0.017u      0.000s      0.010w      1 calls
| SAD Guess                         :      0.017u      0.000s      0.009w      1 calls
HF: Form G                          :      0.017u      0.000s      0.002w     11 calls
| JK: D                             :      0.000u      0.000s      0.000w     11 calls
| JK: USO2AO                        :      0.000u      0.000s      0.000w     11 calls
| JK: JK                            :      0.017u      0.000s      0.002w     11 calls
| | PK computes JK                  :      0.017u      0.000s      0.002w     11 calls
| JK: AO2USO                        :      0.000u      0.000s      0.000w     11 calls
HF: Form F                          :      0.000u      0.000s      0.000w     11 calls
HF: Form D                          :      0.000u      0.000s      0.000w     11 calls
HF: DIIS                            :      0.417u      0.067s      0.286w     10 calls
HF: Form C                          :      0.000u      0.000s      0.002w     10 calls

**************************************************************************************

Host: MacLeo

Timers On : Wed Dec 10 22:48:34 2025
Timers Off: Wed Dec 10 22:48:35 2025

Wall Time:        0.81 seconds

                                                       Time (seconds)
Module                                       User      System        Wall        Calls
Total PK formation time             :      0.117u      0.000s      0.068w      1 calls
Libint2ERI::Libint2ERI              :      0.000u      0.000s      0.003w      2 calls
HF: Form core H                     :      0.000u      0.000s      0.001w      1 calls
HF: Form S/X                        :      0.000u      0.000s      0.000w      1 calls
HF: Guess                           :      0.017u      0.000s      0.010w      1 calls
SAD Guess                           :      0.017u      0.000s      0.009w      1 calls
HF: Form G                          :      0.000u      0.000s      0.002w     10 calls
JK: D                               :      0.000u      0.000s      0.000w     10 calls
JK: USO2AO                          :      0.000u      0.000s      0.000w     10 calls
JK: JK                              :      0.000u      0.000s      0.002w     10 calls
PK computes JK                      :      0.000u      0.000s      0.002w     10 calls
JK: AO2USO                          :      0.000u      0.000s      0.000w     10 calls
HF: Form F                          :      0.000u      0.000s      0.000w     10 calls
HF: Form D                          :      0.000u      0.000s      0.000w     10 calls
HF: DIIS                            :      0.417u      0.067s      0.288w      9 calls
HF: Form C                          :      0.000u      0.000s      0.002w      9 calls

--------------------------------------------------------------------------------------
Total PK formation time             :      0.117u      0.000s      0.068w      1 calls
| Libint2ERI::Libint2ERI            :      0.000u      0.000s      0.003w      2 calls
HF: Form core H                     :      0.000u      0.000s      0.001w      1 calls
HF: Form S/X                        :      0.000u      0.000s      0.000w      1 calls
HF: Guess                           :      0.017u      0.000s      0.010w      1 calls
| SAD Guess                         :      0.017u      0.000s      0.009w      1 calls
HF: Form G                          :      0.000u      0.000s      0.002w     10 calls
| JK: D                             :      0.000u      0.000s      0.000w     10 calls
| JK: USO2AO                        :      0.000u      0.000s      0.000w     10 calls
| JK: JK                            :      0.000u      0.000s      0.002w     10 calls
| | PK computes JK                  :      0.000u      0.000s      0.002w     10 calls
| JK: AO2USO                        :      0.000u      0.000s      0.000w     10 calls
HF: Form F                          :      0.000u      0.000s      0.000w     10 calls
HF: Form D                          :      0.000u      0.000s      0.000w     10 calls
HF: DIIS                            :      0.417u      0.067s      0.288w      9 calls
HF: Form C                          :      0.000u      0.000s      0.002w      9 calls

**************************************************************************************

Host: MacLeo

Timers On : Wed Dec 10 22:48:35 2025
Timers Off: Wed Dec 10 22:48:36 2025

Wall Time:        0.80 seconds

                                                       Time (seconds)
Module                                       User      System        Wall        Calls
Total PK formation time             :      0.117u      0.000s      0.068w      1 calls
Libint2ERI::Libint2ERI              :      0.000u      0.000s      0.003w      2 calls
HF: Form core H                     :      0.000u      0.000s      0.001w      1 calls
HF: Form S/X                        :      0.000u      0.000s      0.000w      1 calls
HF: Guess                           :      0.017u      0.000s      0.010w      1 calls
SAD Guess                           :      0.017u      0.000s      0.009w      1 calls
HF: Form G                          :      0.000u      0.000s      0.002w     10 calls
JK: D                               :      0.000u      0.000s      0.000w     10 calls
JK: USO2AO                          :      0.000u      0.000s      0.000w     10 calls
JK: JK                              :      0.000u      0.000s      0.001w     10 calls
PK computes JK                      :      0.000u      0.000s      0.001w     10 calls
JK: AO2USO                          :      0.000u      0.000s      0.000w     10 calls
HF: Form F                          :      0.000u      0.000s      0.000w     10 calls
HF: Form D                          :      0.000u      0.000s      0.000w     10 calls
HF: DIIS                            :      0.417u      0.067s      0.286w      9 calls
HF: Form C                          :      0.000u      0.000s      0.002w      9 calls

--------------------------------------------------------------------------------------
Total PK formation time             :      0.117u      0.000s      0.068w      1 calls
| Libint2ERI::Libint2ERI            :      0.000u      0.000s      0.003w      2 calls
HF: Form core H                     :      0.000u      0.000s      0.001w      1 calls
HF: Form S/X                        :      0.000u      0.000s      0.000w      1 calls
HF: Guess                           :      0.017u      0.000s      0.010w      1 calls
| SAD Guess                         :      0.017u      0.000s      0.009w      1 calls
HF: Form G                          :      0.000u      0.000s      0.002w     10 calls
| JK: D                             :      0.000u      0.000s      0.000w     10 calls
| JK: USO2AO                        :      0.000u      0.000s      0.000w     10 calls
| JK: JK                            :      0.000u      0.000s      0.001w     10 calls
| | PK computes JK                  :      0.000u      0.000s      0.001w     10 calls
| JK: AO2USO                        :      0.000u      0.000s      0.000w     10 calls
HF: Form F                          :      0.000u      0.000s      0.000w     10 calls
HF: Form D                          :      0.000u      0.000s      0.000w     10 calls
HF: DIIS                            :      0.417u      0.067s      0.286w      9 calls
HF: Form C                          :      0.000u      0.000s      0.002w      9 calls

**************************************************************************************

Host: MacLeo

Timers On : Wed Dec 10 22:48:36 2025
Timers Off: Wed Dec 10 22:48:39 2025

Wall Time:        2.59 seconds

                                                       Time (seconds)
Module                                       User      System        Wall        Calls
Total PK formation time             :      2.017u      0.017s      1.227w      1 calls
Libint2ERI::Libint2ERI              :      0.033u      0.000s      0.017w      2 calls
HF: Form core H                     :      0.033u      0.000s      0.011w      1 calls
HF: Form S/X                        :      0.000u      0.000s      0.001w      1 calls
HF: Guess                           :      0.033u      0.017s      0.025w      1 calls
SAD Guess                           :      0.033u      0.017s      0.025w      1 calls
HF: Form G                          :      0.433u      0.000s      0.269w     19 calls
JK: D                               :      0.000u      0.000s      0.000w     19 calls
JK: USO2AO                          :      0.000u      0.000s      0.000w     19 calls
JK: JK                              :      0.433u      0.000s      0.268w     19 calls
PK computes JK                      :      0.433u      0.000s      0.268w     19 calls
JK: AO2USO                          :      0.000u      0.000s      0.000w     19 calls
HF: Form F                          :      0.000u      0.000s      0.000w     19 calls
HF: Form D                          :      0.000u      0.000s      0.000w     19 calls
HF: DIIS                            :      0.450u      0.083s      0.321w     18 calls
HF: Form C                          :      0.067u      0.000s      0.017w     18 calls

--------------------------------------------------------------------------------------
Total PK formation time             :      2.017u      0.017s      1.227w      1 calls
| Libint2ERI::Libint2ERI            :      0.033u      0.000s      0.017w      2 calls
HF: Form core H                     :      0.033u      0.000s      0.011w      1 calls
HF: Form S/X                        :      0.000u      0.000s      0.001w      1 calls
HF: Guess                           :      0.033u      0.017s      0.025w      1 calls
| SAD Guess                         :      0.033u      0.017s      0.025w      1 calls
HF: Form G                          :      0.433u      0.000s      0.269w     19 calls
| JK: D                             :      0.000u      0.000s      0.000w     19 calls
| JK: USO2AO                        :      0.000u      0.000s      0.000w     19 calls
| JK: JK                            :      0.433u      0.000s      0.268w     19 calls
| | PK computes JK                  :      0.433u      0.000s      0.268w     19 calls
| JK: AO2USO                        :      0.000u      0.000s      0.000w     19 calls
HF: Form F                          :      0.000u      0.000s      0.000w     19 calls
HF: Form D                          :      0.000u      0.000s      0.000w     19 calls
HF: DIIS                            :      0.450u      0.083s      0.321w     18 calls
HF: Form C                          :      0.067u      0.000s      0.017w     18 calls

**************************************************************************************

Host: MacLeo

Timers On : Wed Dec 10 22:48:39 2025
Timers Off: Wed Dec 10 22:48:40 2025

Wall Time:        0.69 seconds

                                                       Time (seconds)
Module                                       User      System        Wall        Calls
Total PK formation time             :      0.017u      0.000s      0.008w      1 calls
Libint2ERI::Libint2ERI              :      0.000u      0.000s      0.001w      2 calls
HF: Form core H                     :      0.000u      0.000s      0.001w      1 calls
HF: Form S/X                        :      0.000u      0.000s      0.000w      1 calls
HF: Guess                           :      0.017u      0.000s      0.010w      1 calls
SAD Guess                           :      0.017u      0.000s      0.009w      1 calls
HF: Form G                          :      0.000u      0.000s      0.000w      9 calls
JK: D                               :      0.000u      0.000s      0.000w      9 calls
JK: USO2AO                          :      0.000u      0.000s      0.000w      9 calls
JK: JK                              :      0.000u      0.000s      0.000w      9 calls
PK computes JK                      :      0.000u      0.000s      0.000w      9 calls
JK: AO2USO                          :      0.000u      0.000s      0.000w      9 calls
HF: Form F                          :      0.000u      0.000s      0.000w      9 calls
HF: Form D                          :      0.000u      0.000s      0.000w      9 calls
HF: DIIS                            :      0.400u      0.083s      0.288w      8 calls
HF: Form C                          :      0.017u      0.000s      0.001w      8 calls

--------------------------------------------------------------------------------------
Total PK formation time             :      0.017u      0.000s      0.008w      1 calls
| Libint2ERI::Libint2ERI            :      0.000u      0.000s      0.001w      2 calls
HF: Form core H                     :      0.000u      0.000s      0.001w      1 calls
HF: Form S/X                        :      0.000u      0.000s      0.000w      1 calls
HF: Guess                           :      0.017u      0.000s      0.010w      1 calls
| SAD Guess                         :      0.017u      0.000s      0.009w      1 calls
HF: Form G                          :      0.000u      0.000s      0.000w      9 calls
| JK: D                             :      0.000u      0.000s      0.000w      9 calls
| JK: USO2AO                        :      0.000u      0.000s      0.000w      9 calls
| JK: JK                            :      0.000u      0.000s      0.000w      9 calls
| | PK computes JK                  :      0.000u      0.000s      0.000w      9 calls
| JK: AO2USO                        :      0.000u      0.000s      0.000w      9 calls
HF: Form F                          :      0.000u      0.000s      0.000w      9 calls
HF: Form D                          :      0.000u      0.000s      0.000w      9 calls
HF: DIIS                            :      0.400u      0.083s      0.288w      8 calls
HF: Form C                          :      0.017u      0.000s      0.001w      8 calls

**************************************************************************************

Host: MacLeo

Timers On : Wed Dec 10 22:48:41 2025
Timers Off: Wed Dec 10 22:49:28 2025

Wall Time:       47.11 seconds

                                                       Time (seconds)
Module                                       User      System        Wall        Calls
Total PK formation time             :     46.717u      1.867s     29.060w      1 calls
Libint2ERI::Libint2ERI              :      0.117u      0.033s      0.078w      2 calls
HF: Form core H                     :      0.167u      0.033s      0.097w      1 calls
HF: Form S/X                        :      0.000u      0.000s      0.008w      1 calls
HF: Guess                           :      0.017u      0.000s      0.012w      1 calls
SAD Guess                           :      0.017u      0.000s      0.011w      1 calls
HF: Form G                          :      8.633u     12.050s     15.087w     21 calls
JK: D                               :      0.000u      0.000s      0.003w     21 calls
JK: USO2AO                          :      0.000u      0.000s      0.000w     21 calls
JK: JK                              :      8.633u     12.050s     15.083w     21 calls
PK computes JK                      :      8.633u     12.050s     15.082w     21 calls
AIO synchronize                     :      0.000u      0.000s      0.000w      1 calls
JK: AO2USO                          :      0.000u      0.000s      0.000w     21 calls
HF: Form F                          :      0.000u      0.000s      0.000w     21 calls
HF: Form D                          :      0.033u      0.000s      0.003w     21 calls
HF: DIIS                            :      0.500u      0.133s      0.620w     20 calls
HF: Form C                          :      0.183u      0.000s      0.109w     20 calls

--------------------------------------------------------------------------------------
Total PK formation time             :     46.717u      1.867s     29.060w      1 calls
| Libint2ERI::Libint2ERI            :      0.117u      0.033s      0.078w      2 calls
HF: Form core H                     :      0.167u      0.033s      0.097w      1 calls
HF: Form S/X                        :      0.000u      0.000s      0.008w      1 calls
HF: Guess                           :      0.017u      0.000s      0.012w      1 calls
| SAD Guess                         :      0.017u      0.000s      0.011w      1 calls
HF: Form G                          :      8.633u     12.050s     15.087w     21 calls
| JK: D                             :      0.000u      0.000s      0.003w     21 calls
| JK: USO2AO                        :      0.000u      0.000s      0.000w     21 calls
| JK: JK                            :      8.633u     12.050s     15.083w     21 calls
| | PK computes JK                  :      8.633u     12.050s     15.082w     21 calls
| | | AIO synchronize               :      0.000u      0.000s      0.000w      1 calls
| JK: AO2USO                        :      0.000u      0.000s      0.000w     21 calls
HF: Form F                          :      0.000u      0.000s      0.000w     21 calls
HF: Form D                          :      0.033u      0.000s      0.003w     21 calls
HF: DIIS                            :      0.500u      0.133s      0.620w     20 calls
HF: Form C                          :      0.183u      0.000s      0.109w     20 calls

**************************************************************************************

Host: MacLeo

Timers On : Wed Dec 10 22:49:28 2025
Timers Off: Wed Dec 10 22:49:29 2025

Wall Time:        0.92 seconds

                                                       Time (seconds)
Module                                       User      System        Wall        Calls
Total PK formation time             :      0.083u      0.000s      0.049w      1 calls
Libint2ERI::Libint2ERI              :      0.000u      0.000s      0.002w      2 calls
HF: Form core H                     :      0.000u      0.000s      0.001w      1 calls
HF: Form S/X                        :      0.000u      0.000s      0.000w      1 calls
HF: Guess                           :      0.017u      0.017s      0.015w      1 calls
SAD Guess                           :      0.017u      0.017s      0.015w      1 calls
HF: Form G                          :      0.000u      0.000s      0.001w     11 calls
JK: D                               :      0.000u      0.000s      0.000w     11 calls
JK: USO2AO                          :      0.000u      0.000s      0.000w     11 calls
JK: JK                              :      0.000u      0.000s      0.001w     11 calls
PK computes JK                      :      0.000u      0.000s      0.001w     11 calls
JK: AO2USO                          :      0.000u      0.000s      0.000w     11 calls
HF: Form F                          :      0.000u      0.000s      0.000w     11 calls
HF: Form D                          :      0.000u      0.000s      0.000w     11 calls
HF: DIIS                            :      0.433u      0.067s      0.363w     10 calls
HF: Form C                          :      0.000u      0.000s      0.002w     10 calls

--------------------------------------------------------------------------------------
Total PK formation time             :      0.083u      0.000s      0.049w      1 calls
| Libint2ERI::Libint2ERI            :      0.000u      0.000s      0.002w      2 calls
HF: Form core H                     :      0.000u      0.000s      0.001w      1 calls
HF: Form S/X                        :      0.000u      0.000s      0.000w      1 calls
HF: Guess                           :      0.017u      0.017s      0.015w      1 calls
| SAD Guess                         :      0.017u      0.017s      0.015w      1 calls
HF: Form G                          :      0.000u      0.000s      0.001w     11 calls
| JK: D                             :      0.000u      0.000s      0.000w     11 calls
| JK: USO2AO                        :      0.000u      0.000s      0.000w     11 calls
| JK: JK                            :      0.000u      0.000s      0.001w     11 calls
| | PK computes JK                  :      0.000u      0.000s      0.001w     11 calls
| JK: AO2USO                        :      0.000u      0.000s      0.000w     11 calls
HF: Form F                          :      0.000u      0.000s      0.000w     11 calls
HF: Form D                          :      0.000u      0.000s      0.000w     11 calls
HF: DIIS                            :      0.433u      0.067s      0.363w     10 calls
HF: Form C                          :      0.000u      0.000s      0.002w     10 calls

**************************************************************************************

Host: MacLeo

Timers On : Wed Dec 10 22:49:30 2025
Timers Off: Wed Dec 10 22:49:30 2025

Wall Time:        0.66 seconds

                                                       Time (seconds)
Module                                       User      System        Wall        Calls
Total PK formation time             :      0.000u      0.000s      0.002w      1 calls
Libint2ERI::Libint2ERI              :      0.000u      0.000s      0.000w      2 calls
HF: Form core H                     :      0.000u      0.000s      0.000w      1 calls
HF: Form S/X                        :      0.000u      0.000s      0.000w      1 calls
HF: Guess                           :      0.017u      0.000s      0.010w      1 calls
SAD Guess                           :      0.017u      0.000s      0.009w      1 calls
HF: Form G                          :      0.000u      0.000s      0.000w      7 calls
JK: D                               :      0.000u      0.000s      0.000w      7 calls
JK: USO2AO                          :      0.000u      0.000s      0.000w      7 calls
JK: JK                              :      0.000u      0.000s      0.000w      7 calls
PK computes JK                      :      0.000u      0.000s      0.000w      7 calls
JK: AO2USO                          :      0.000u      0.000s      0.000w      7 calls
HF: Form F                          :      0.000u      0.000s      0.000w      7 calls
HF: Form D                          :      0.000u      0.000s      0.000w      7 calls
HF: DIIS                            :      0.417u      0.067s      0.285w      6 calls
HF: Form C                          :      0.000u      0.000s      0.001w      6 calls

--------------------------------------------------------------------------------------
Total PK formation time             :      0.000u      0.000s      0.002w      1 calls
[...]
HF: Form D                          :      0.000u      0.000s      0.000w      9 calls
HF: DIIS                            :      0.400u      0.083s      0.288w      8 calls
HF: Form C                          :      0.000u      0.000s      0.001w      8 calls

**************************************************************************************

Host: MacLeo

Timers On : Wed Dec 10 23:08:22 2025
Timers Off: Wed Dec 10 23:09:30 2025

Wall Time:       67.18 seconds

                                                       Time (seconds)
Module                                       User      System        Wall        Calls
Total PK formation time             :     47.067u      1.783s     28.914w      1 calls
Libint2ERI::Libint2ERI              :      0.133u      0.033s      0.074w      2 calls
HF: Form core H                     :      0.167u      0.050s      0.099w      1 calls
HF: Form S/X                        :      0.017u      0.000s      0.006w      1 calls
HF: Guess                           :      0.017u      0.000s      0.014w      1 calls
SAD Guess                           :      0.017u      0.000s      0.013w      1 calls
HF: Form G                          :      8.650u     16.433s     35.308w     21 calls
JK: D                               :      0.000u      0.000s      0.003w     21 calls
JK: USO2AO                          :      0.000u      0.000s      0.000w     21 calls
JK: JK                              :      8.650u     16.433s     35.304w     21 calls
PK computes JK                      :      8.650u     16.433s     35.303w     21 calls
AIO synchronize                     :      0.000u      0.000s      0.000w      1 calls
JK: AO2USO                          :      0.000u      0.000s      0.000w     21 calls
HF: Form F                          :      0.000u      0.000s      0.000w     21 calls
HF: Form D                          :      0.017u      0.000s      0.003w     21 calls
HF: DIIS                            :      0.517u      0.150s      0.674w     20 calls
HF: Form C                          :      0.133u      0.000s      0.109w     20 calls

--------------------------------------------------------------------------------------
Total PK formation time             :     47.067u      1.783s     28.914w      1 calls
| Libint2ERI::Libint2ERI            :      0.133u      0.033s      0.074w      2 calls
HF: Form core H                     :      0.167u      0.050s      0.099w      1 calls
HF: Form S/X                        :      0.017u      0.000s      0.006w      1 calls
HF: Guess                           :      0.017u      0.000s      0.014w      1 calls
| SAD Guess                         :      0.017u      0.000s      0.013w      1 calls
HF: Form G                          :      8.650u     16.433s     35.308w     21 calls
| JK: D                             :      0.000u      0.000s      0.003w     21 calls
| JK: USO2AO                        :      0.000u      0.000s      0.000w     21 calls
| JK: JK                            :      8.650u     16.433s     35.304w     21 calls
| | PK computes JK                  :      8.650u     16.433s     35.303w     21 calls
| | | AIO synchronize               :      0.000u      0.000s      0.000w      1 calls
| JK: AO2USO                        :      0.000u      0.000s      0.000w     21 calls
HF: Form F                          :      0.000u      0.000s      0.000w     21 calls
HF: Form D                          :      0.017u      0.000s      0.003w     21 calls
HF: DIIS                            :      0.517u      0.150s      0.674w     20 calls
HF: Form C                          :      0.133u      0.000s      0.109w     20 calls

**************************************************************************************

Host: MacLeo

Timers On : Wed Dec 10 23:09:30 2025
Timers Off: Wed Dec 10 23:09:31 2025

Wall Time:        0.93 seconds

                                                       Time (seconds)
Module                                       User      System        Wall        Calls
Total PK formation time             :      0.083u      0.000s      0.049w      1 calls
Libint2ERI::Libint2ERI              :      0.000u      0.000s      0.002w      2 calls
HF: Form core H                     :      0.000u      0.000s      0.001w      1 calls
HF: Form S/X                        :      0.000u      0.000s      0.000w      1 calls
HF: Guess                           :      0.017u      0.000s      0.015w      1 calls
SAD Guess                           :      0.017u      0.000s      0.014w      1 calls
HF: Form G                          :      0.000u      0.000s      0.001w     11 calls
JK: D                               :      0.000u      0.000s      0.000w     11 calls
JK: USO2AO                          :      0.000u      0.000s      0.000w     11 calls
JK: JK                              :      0.000u      0.000s      0.001w     11 calls
PK computes JK                      :      0.000u      0.000s      0.001w     11 calls
JK: AO2USO                          :      0.000u      0.000s      0.000w     11 calls
HF: Form F                          :      0.000u      0.000s      0.000w     11 calls
HF: Form D                          :      0.000u      0.000s      0.000w     11 calls
HF: DIIS                            :      0.433u      0.083s      0.359w     10 calls
HF: Form C                          :      0.000u      0.000s      0.002w     10 calls

--------------------------------------------------------------------------------------
Total PK formation time             :      0.083u      0.000s      0.049w      1 calls
| Libint2ERI::Libint2ERI            :      0.000u      0.000s      0.002w      2 calls
HF: Form core H                     :      0.000u      0.000s      0.001w      1 calls
HF: Form S/X                        :      0.000u      0.000s      0.000w      1 calls
HF: Guess                           :      0.017u      0.000s      0.015w      1 calls
| SAD Guess                         :      0.017u      0.000s      0.014w      1 calls
HF: Form G                          :      0.000u      0.000s      0.001w     11 calls
| JK: D                             :      0.000u      0.000s      0.000w     11 calls
| JK: USO2AO                        :      0.000u      0.000s      0.000w     11 calls
| JK: JK                            :      0.000u      0.000s      0.001w     11 calls
| | PK computes JK                  :      0.000u      0.000s      0.001w     11 calls
| JK: AO2USO                        :      0.000u      0.000s      0.000w     11 calls
HF: Form F                          :      0.000u      0.000s      0.000w     11 calls
HF: Form D                          :      0.000u      0.000s      0.000w     11 calls
HF: DIIS                            :      0.433u      0.083s      0.359w     10 calls
HF: Form C                          :      0.000u      0.000s      0.002w     10 calls

**************************************************************************************

Host: MacLeo

Timers On : Wed Dec 10 23:09:32 2025
Timers Off: Wed Dec 10 23:09:33 2025

Wall Time:        0.68 seconds

                                                       Time (seconds)
Module                                       User      System        Wall        Calls
Total PK formation time             :      0.000u      0.000s      0.002w      1 calls
Libint2ERI::Libint2ERI              :      0.000u      0.000s      0.000w      2 calls
HF: Form core H                     :      0.000u      0.000s      0.001w      1 calls
HF: Form S/X                        :      0.000u      0.000s      0.000w      1 calls
HF: Guess                           :      0.017u      0.000s      0.010w      1 calls
SAD Guess                           :      0.017u      0.000s      0.009w      1 calls
HF: Form G                          :      0.000u      0.000s      0.000w      7 calls
JK: D                               :      0.000u      0.000s      0.000w      7 calls
JK: USO2AO                          :      0.000u      0.000s      0.000w      7 calls
JK: JK                              :      0.000u      0.000s      0.000w      7 calls
PK computes JK                      :      0.000u      0.000s      0.000w      7 calls
JK: AO2USO                          :      0.000u      0.000s      0.000w      7 calls
HF: Form F                          :      0.000u      0.000s      0.000w      7 calls
HF: Form D                          :      0.000u      0.000s      0.000w      7 calls
HF: DIIS                            :      0.400u      0.067s      0.284w      6 calls
HF: Form C                          :      0.000u      0.000s      0.001w      6 calls

--------------------------------------------------------------------------------------
Total PK formation time             :      0.000u      0.000s      0.002w      1 calls
| Libint2ERI::Libint2ERI            :      0.000u      0.000s      0.000w      2 calls
HF: Form core H                     :      0.000u      0.000s      0.001w      1 calls
HF: Form S/X                        :      0.000u      0.000s      0.000w      1 calls
HF: Guess                           :      0.017u      0.000s      0.010w      1 calls
| SAD Guess                         :      0.017u      0.000s      0.009w      1 calls
HF: Form G                          :      0.000u      0.000s      0.000w      7 calls
| JK: D                             :      0.000u      0.000s      0.000w      7 calls
| JK: USO2AO                        :      0.000u      0.000s      0.000w      7 calls
| JK: JK                            :      0.000u      0.000s      0.000w      7 calls
| | PK computes JK                  :      0.000u      0.000s      0.000w      7 calls
| JK: AO2USO                        :      0.000u      0.000s      0.000w      7 calls
HF: Form F                          :      0.000u      0.000s      0.000w      7 calls
HF: Form D                          :      0.000u      0.000s      0.000w      7 calls
HF: DIIS                            :      0.400u      0.067s      0.284w      6 calls
HF: Form C                          :      0.000u      0.000s      0.001w      6 calls

**************************************************************************************

Host: MacLeo

Timers On : Wed Dec 10 23:09:33 2025
Timers Off: Wed Dec 10 23:09:34 2025

Wall Time:        0.74 seconds

                                                       Time (seconds)
Module                                       User      System        Wall        Calls
Total PK formation time             :      0.033u      0.000s      0.026w      1 calls
Libint2ERI::Libint2ERI              :      0.000u      0.000s      0.002w      2 calls
HF: Form core H                     :      0.000u      0.000s      0.001w      1 calls
HF: Form S/X                        :      0.000u      0.000s      0.000w      1 calls
HF: Guess                           :      0.017u      0.000s      0.010w      1 calls
SAD Guess                           :      0.017u      0.000s      0.009w      1 calls
HF: Form G                          :      0.000u      0.000s      0.001w     10 calls
JK: D                               :      0.000u      0.000s      0.000w     10 calls
JK: USO2AO                          :      0.000u      0.000s      0.000w     10 calls
JK: JK                              :      0.000u      0.000s      0.001w     10 calls
PK computes JK                      :      0.000u      0.000s      0.001w     10 calls
JK: AO2USO                          :      0.000u      0.000s      0.000w     10 calls
HF: Form F                          :      0.000u      0.000s      0.000w     10 calls
HF: Form D                          :      0.000u      0.000s      0.000w     10 calls
HF: DIIS                            :      0.400u      0.067s      0.291w      9 calls
HF: Form C                          :      0.000u      0.000s      0.002w      9 calls

--------------------------------------------------------------------------------------
Total PK formation time             :      0.033u      0.000s      0.026w      1 calls
| Libint2ERI::Libint2ERI            :      0.000u      0.000s      0.002w      2 calls
HF: Form core H                     :      0.000u      0.000s      0.001w      1 calls
HF: Form S/X                        :      0.000u      0.000s      0.000w      1 calls
HF: Guess                           :      0.017u      0.000s      0.010w      1 calls
| SAD Guess                         :      0.017u      0.000s      0.009w      1 calls
HF: Form G                          :      0.000u      0.000s      0.001w     10 calls
| JK: D                             :      0.000u      0.000s      0.000w     10 calls
| JK: USO2AO                        :      0.000u      0.000s      0.000w     10 calls
| JK: JK                            :      0.000u      0.000s      0.001w     10 calls
| | PK computes JK                  :      0.000u      0.000s      0.001w     10 calls
| JK: AO2USO                        :      0.000u      0.000s      0.000w     10 calls
HF: Form F                          :      0.000u      0.000s      0.000w     10 calls
HF: Form D                          :      0.000u      0.000s      0.000w     10 calls
HF: DIIS                            :      0.400u      0.067s      0.291w      9 calls
HF: Form C                          :      0.000u      0.000s      0.002w      9 calls

**************************************************************************************

Host: MacLeo

Timers On : Wed Dec 10 23:09:34 2025
Timers Off: Wed Dec 10 23:09:35 2025

Wall Time:        0.79 seconds

                                                       Time (seconds)
Module                                       User      System        Wall        Calls
Total PK formation time             :      0.083u      0.000s      0.049w      1 calls
Libint2ERI::Libint2ERI              :      0.000u      0.000s      0.002w      2 calls
HF: Form core H                     :      0.000u      0.000s      0.001w      1 calls
HF: Form S/X                        :      0.000u      0.000s      0.000w      1 calls
HF: Guess                           :      0.017u      0.000s      0.015w      1 calls
SAD Guess                           :      0.017u      0.000s      0.014w      1 calls
HF: Form G                          :      0.017u      0.000s      0.001w     12 calls
JK: D                               :      0.000u      0.000s      0.000w     12 calls
JK: USO2AO                          :      0.000u      0.000s      0.000w     12 calls
JK: JK                              :      0.017u      0.000s      0.001w     12 calls
PK computes JK                      :      0.017u      0.000s      0.001w     12 calls
JK: AO2USO                          :      0.000u      0.000s      0.000w     12 calls
HF: Form F                          :      0.000u      0.000s      0.000w     12 calls
HF: Form D                          :      0.000u      0.000s      0.000w     12 calls
HF: DIIS                            :      0.433u      0.083s      0.295w     11 calls
HF: Form C                          :      0.000u      0.000s      0.002w     11 calls

--------------------------------------------------------------------------------------
Total PK formation time             :      0.083u      0.000s      0.049w      1 calls
| Libint2ERI::Libint2ERI            :      0.000u      0.000s      0.002w      2 calls
HF: Form core H                     :      0.000u      0.000s      0.001w      1 calls
HF: Form S/X                        :      0.000u      0.000s      0.000w      1 calls
HF: Guess                           :      0.017u      0.000s      0.015w      1 calls
| SAD Guess                         :      0.017u      0.000s      0.014w      1 calls
HF: Form G                          :      0.017u      0.000s      0.001w     12 calls
| JK: D                             :      0.000u      0.000s      0.000w     12 calls
| JK: USO2AO                        :      0.000u      0.000s      0.000w     12 calls
| JK: JK                            :      0.017u      0.000s      0.001w     12 calls
| | PK computes JK                  :      0.017u      0.000s      0.001w     12 calls
| JK: AO2USO                        :      0.000u      0.000s      0.000w     12 calls
HF: Form F                          :      0.000u      0.000s      0.000w     12 calls
HF: Form D                          :      0.000u      0.000s      0.000w     12 calls
HF: DIIS                            :      0.433u      0.083s      0.295w     11 calls
HF: Form C                          :      0.000u      0.000s      0.002w     11 calls

**************************************************************************************

Host: MacLeo

Timers On : Wed Dec 10 23:09:36 2025
Timers Off: Wed Dec 10 23:09:37 2025

Wall Time:        1.24 seconds

                                                       Time (seconds)
Module                                       User      System        Wall        Calls
Total PK formation time             :      0.633u      0.000s      0.379w      1 calls
Libint2ERI::Libint2ERI              :      0.017u      0.000s      0.006w      2 calls
HF: Form core H                     :      0.000u      0.000s      0.004w      1 calls
HF: Form S/X                        :      0.000u      0.000s      0.000w      1 calls
HF: Guess                           :      0.017u      0.000s      0.010w      1 calls
SAD Guess                           :      0.017u      0.000s      0.010w      1 calls
HF: Form G                          :      0.033u      0.000s      0.011w     10 calls
JK: D                               :      0.000u      0.000s      0.000w     10 calls
JK: USO2AO                          :      0.000u      0.000s      0.000w     10 calls
JK: JK                              :      0.033u      0.000s      0.011w     10 calls
PK computes JK                      :      0.033u      0.000s      0.011w     10 calls
JK: AO2USO                          :      0.000u      0.000s      0.000w     10 calls
HF: Form F                          :      0.000u      0.000s      0.000w     10 calls
HF: Form D                          :      0.000u      0.000s      0.000w     10 calls
HF: DIIS                            :      0.417u      0.083s      0.293w      9 calls
HF: Form C                          :      0.000u      0.000s      0.003w      9 calls

--------------------------------------------------------------------------------------
Total PK formation time             :      0.633u      0.000s      0.379w      1 calls
| Libint2ERI::Libint2ERI            :      0.017u      0.000s      0.006w      2 calls
HF: Form core H                     :      0.000u      0.000s      0.004w      1 calls
HF: Form S/X                        :      0.000u      0.000s      0.000w      1 calls
HF: Guess                           :      0.017u      0.000s      0.010w      1 calls
| SAD Guess                         :      0.017u      0.000s      0.010w      1 calls
HF: Form G                          :      0.033u      0.000s      0.011w     10 calls
| JK: D                             :      0.000u      0.000s      0.000w     10 calls
| JK: USO2AO                        :      0.000u      0.000s      0.000w     10 calls
| JK: JK                            :      0.033u      0.000s      0.011w     10 calls
| | PK computes JK                  :      0.033u      0.000s      0.011w     10 calls
| JK: AO2USO                        :      0.000u      0.000s      0.000w     10 calls
HF: Form F                          :      0.000u      0.000s      0.000w     10 calls
HF: Form D                          :      0.000u      0.000s      0.000w     10 calls
HF: DIIS                            :      0.417u      0.083s      0.293w      9 calls
HF: Form C                          :      0.000u      0.000s      0.003w      9 calls

**************************************************************************************
