
Host: Spaceship

Timers On : Sat Jan  3 17:58:39 2026
Timers Off: Sat Jan  3 17:58:40 2026

Wall Time:        1.21 seconds

                                                       Time (seconds)
Module                                       User      System        Wall        Calls

--------------------------------------------------------------------------------------

**************************************************************************************
