
Host: MacLeo

Timers On : Thu Jan  8 16:38:50 2026
Timers Off: Thu Jan  8 16:38:50 2026

Wall Time:        0.44 seconds

                                                       Time (seconds)
Module                                       User      System        Wall        Calls

--------------------------------------------------------------------------------------

**************************************************************************************
