[Molden Format]
[N_Atoms]
                   11
[Atoms] (AU)
C1          1      6           1.97202370      0.12901160      0.14613252
C2          2      6           4.84234761      0.08579357      0.11644492
C3          3      6           5.84817324     -2.14223133     -1.38940224
H4          4      1           1.28884991      1.74659827      1.23903673
H5          5      1           1.21380889     -1.59339817      1.00512643
H6          6      1           1.21443249      0.28434709     -1.77292215
H7          7      1           5.55137285     -0.01766894      2.05940463
H8          8      1           5.55095711      1.84953165     -0.70424424
H9          9      1           5.20846315     -3.93410744     -0.57721685
H10        10      1           7.91623282     -2.13695899     -1.38554720
H11        11      1           5.20895448     -2.05607872     -3.35494417
[Charge] (Mulliken)
 -0.17108779615639591     
  -9.0579013650391005E-002
 -0.17114465847707105     
   5.4954515939684923E-002
   5.4626711110926318E-002
   5.4574365748315312E-002
   5.2189066174368248E-002
   5.2250758012956866E-002
   5.4617605223437393E-002
   5.4978635755801530E-002
   5.4619810318128126E-002
[GTO] (AU)
   1
   s   3
  7.161683735E+01  1.543289673E-01
  1.304509632E+01  5.353281423E-01
  3.530512160E+00  4.446345422E-01
   s   3
  2.941249355E+00 -9.996722919E-02
  6.834830964E-01  3.995128261E-01
  2.222899159E-01  7.001154689E-01
   p   3
  2.941249355E+00  1.559162750E-01
  6.834830964E-01  6.076837186E-01
  2.222899159E-01  3.919573931E-01
 
   2
   s   3
  7.161683735E+01  1.543289673E-01
  1.304509632E+01  5.353281423E-01
  3.530512160E+00  4.446345422E-01
   s   3
  2.941249355E+00 -9.996722919E-02
  6.834830964E-01  3.995128261E-01
  2.222899159E-01  7.001154689E-01
   p   3
  2.941249355E+00  1.559162750E-01
  6.834830964E-01  6.076837186E-01
  2.222899159E-01  3.919573931E-01
 
   3
   s   3
  7.161683735E+01  1.543289673E-01
  1.304509632E+01  5.353281423E-01
  3.530512160E+00  4.446345422E-01
   s   3
  2.941249355E+00 -9.996722919E-02
  6.834830964E-01  3.995128261E-01
  2.222899159E-01  7.001154689E-01
   p   3
  2.941249355E+00  1.559162750E-01
  6.834830964E-01  6.076837186E-01
  2.222899159E-01  3.919573931E-01
 
   4
   s   3
  3.425250914E+00  1.543289673E-01
  6.239137298E-01  5.353281423E-01
  1.688554040E-01  4.446345422E-01
 
   5
   s   3
  3.425250914E+00  1.543289673E-01
  6.239137298E-01  5.353281423E-01
  1.688554040E-01  4.446345422E-01
 
   6
   s   3
  3.425250914E+00  1.543289673E-01
  6.239137298E-01  5.353281423E-01
  1.688554040E-01  4.446345422E-01
 
   7
   s   3
  3.425250914E+00  1.543289673E-01
  6.239137298E-01  5.353281423E-01
  1.688554040E-01  4.446345422E-01
 
   8
   s   3
  3.425250914E+00  1.543289673E-01
  6.239137298E-01  5.353281423E-01
  1.688554040E-01  4.446345422E-01
 
   9
   s   3
  3.425250914E+00  1.543289673E-01
  6.239137298E-01  5.353281423E-01
  1.688554040E-01  4.446345422E-01
 
  10
   s   3
  3.425250914E+00  1.543289673E-01
  6.239137298E-01  5.353281423E-01
  1.688554040E-01  4.446345422E-01
 
  11
   s   3
  3.425250914E+00  1.543289673E-01
  6.239137298E-01  5.353281423E-01
  1.688554040E-01  4.446345422E-01
 
[MO]
Sym=     1a  
Ene=   -11.0420
Spin= Alpha
Occup=    2.00000
   1        -0.01313991
   2        -0.00638175
   3        -0.00432654
   4         0.00005631
   5         0.00003900
   6         0.99172526
   7         0.03776861
   8         0.00004521
   9         0.00005525
  10         0.00003498
  11        -0.01314626
  12        -0.00638024
  13         0.00150586
  14        -0.00336039
  15        -0.00227108
  16         0.00018104
  17         0.00013333
  18         0.00013311
  19        -0.00696615
  20        -0.00696895
  21         0.00013331
  22         0.00018114
  23         0.00013329
Sym=     2a  
Ene=   -11.0320
Spin= Alpha
Occup=    2.00000
   1        -0.73279548
   2        -0.02782985
   3         0.00015503
   4         0.00008789
   5         0.00006014
   6        -0.00091132
   7         0.00034275
   8        -0.00418505
   9         0.00229367
  10         0.00155092
  11         0.66849749
  12         0.02538776
  13        -0.00007018
  14        -0.00013832
  15        -0.00009420
  16         0.00503486
  17         0.00512945
  18         0.00512843
  19         0.00000295
  20         0.00000281
  21        -0.00468075
  22        -0.00457704
  23        -0.00468135
Sym=     3a  
Ene=   -11.0320
Spin= Alpha
Occup=    2.00000
   1         0.66842667
   2         0.02539523
   3        -0.00022676
   4         0.00014508
   5         0.00009736
   6         0.01995913
   7        -0.00743965
   8         0.00177223
   9         0.00240620
  10         0.00162558
  11         0.73273065
  12         0.02783818
  13         0.00023548
  14        -0.00014245
  15        -0.00009695
  16        -0.00477558
  17        -0.00466122
  18        -0.00466036
  19        -0.00006276
  20        -0.00006265
  21        -0.00511144
  22        -0.00521751
  23        -0.00511165
Sym=     4a  
Ene=    -1.0182
Spin= Alpha
Occup=    2.00000
   1        -0.12235511
   2         0.32977311
   3         0.06505516
   4        -0.00577158
   5        -0.00392120
   6        -0.16434080
   7         0.44326615
   8        -0.02788861
   9        -0.03261355
  10        -0.02208121
  11        -0.12233876
  12         0.32973100
  13        -0.02823766
  14         0.04887604
  15         0.03301969
  16         0.07128358
  17         0.07546358
  18         0.07545482
  19         0.09995495
  20         0.10001371
  21         0.07545637
  22         0.07129022
  23         0.07546752
Sym=     5a  
Ene=    -0.8885
Spin= Alpha
Occup=    2.00000
   1         0.15837591
   2        -0.45657782
   3         0.02176154
   4        -0.01455886
   5        -0.00983675
   6         0.00002328
   7        -0.00006290
   8         0.13588564
   9        -0.07961403
  10        -0.05382742
  11        -0.15841325
  12         0.45667953
  13         0.02383809
  14        -0.01217967
  15        -0.00825658
  16        -0.14541930
  17        -0.13198610
  18        -0.13194148
  19        -0.00001798
  20        -0.00000992
  21         0.13200388
  22         0.14547736
  23         0.13202502
Sym=     6a  
Ene=    -0.7656
Spin= Alpha
Occup=    2.00000
   1        -0.09055016
   2         0.28017582
   3        -0.15932791
   4        -0.02855871
   5        -0.01923162
   6         0.14564573
   7        -0.45334266
   8        -0.09052996
   9        -0.10606630
  10        -0.07154747
  11        -0.09051113
  12         0.28004208
  13         0.02060263
  14        -0.13394839
  15        -0.09051857
  16         0.10501804
  17         0.14007176
  18         0.13995540
  19        -0.20691587
  20        -0.20706704
  21         0.13998345
  22         0.10496484
  23         0.13995518
Sym=     7a  
Ene=    -0.5991
Spin= Alpha
Occup=    2.00000
   1         0.00000478
   2        -0.00001927
   3         0.00007085
   4        -0.16051341
   5         0.23728317
   6        -0.00004601
   7         0.00018184
   8         0.00004062
   9        -0.21632878
  10         0.31999199
  11         0.00000389
  12        -0.00000587
  13        -0.00002250
  14        -0.16035251
  15         0.23745515
  16        -0.00013695
  17         0.18860382
  18        -0.18863159
  19         0.24795952
  20        -0.24790839
  21         0.18859371
  22         0.00001081
  23        -0.18873848
Sym=     8a  
Ene=    -0.5682
Spin= Alpha
Occup=    2.00000
   1        -0.00971687
   2         0.02935749
   3        -0.17892195
   4         0.27055468
   5         0.18293349
   6         0.02716533
   7        -0.09872774
   8         0.17319071
   9         0.20273545
  10         0.13706640
  11        -0.00970881
  12         0.02931598
  13         0.36769991
  14        -0.04946116
  15        -0.03335549
  16         0.31864885
  17        -0.06034501
  18        -0.06045045
  19         0.10665100
  20         0.10656760
  21        -0.06054773
  22         0.31877806
  23        -0.06057552
Sym=     9a  
Ene=    -0.5218
Spin= Alpha
Occup=    2.00000
   1        -0.00395114
   2         0.01185057
   3        -0.22034677
   4        -0.27713703
   5        -0.18652476
   6        -0.00001048
   7         0.00004628
   8         0.23806054
   9        -0.13951839
  10        -0.09454115
  11         0.00396088
  12        -0.01187026
  13         0.24130551
  14         0.26473263
  15         0.17820418
  16        -0.21756727
  17         0.21014808
  18         0.20911306
  19        -0.00017591
  20         0.00010759
  21        -0.21006990
  22         0.21736684
  23        -0.20911956
Sym=    10a  
Ene=    -0.5023
Spin= Alpha
Occup=    2.00000
   1        -0.00001185
   2         0.00005581
   3        -0.00014833
   4         0.23080813
   5        -0.34235171
   6         0.00000399
   7        -0.00001447
   8         0.00018596
   9        -0.00021962
  10        -0.00035064
  11        -0.00000421
  12         0.00002417
  13         0.00051207
  14        -0.23081682
  15         0.34250284
  16        -0.00031497
  17        -0.30499304
  18         0.30557282
  19        -0.00024141
  20         0.00000033
  21         0.30497011
  22         0.00054907
  23        -0.30583871
Sym=    11a  
Ene=    -0.4421
Spin= Alpha
Occup=    2.00000
   1         0.01973777
   2        -0.08009435
   3        -0.28164617
   4        -0.18842533
   5        -0.12524157
   6         0.01473706
   7        -0.06430719
   8         0.26124912
   9         0.30446696
  10         0.20211093
  11         0.01950660
  12        -0.07920784
  13        -0.12289599
  14        -0.28144166
  15        -0.18766354
  16        -0.16530844
  17         0.18804676
  18         0.18475794
  19         0.24624506
  20         0.25136584
  21         0.18850298
  22        -0.16848955
  23         0.18461719
Sym=    12a  
Ene=    -0.4359
Spin= Alpha
Occup=    2.00000
   1        -0.00023651
   2         0.00091332
   3         0.00388646
   4         0.14615893
   5        -0.22619202
   6         0.00010943
   7        -0.00045512
   8        -0.00404740
   9        -0.22943221
  10         0.35184686
  11         0.00052580
  12        -0.00207693
  13         0.00478978
  14         0.14507786
  15        -0.22660916
  16        -0.00648460
  17        -0.24363163
  18         0.24714437
  19         0.36459301
  20        -0.36092708
  21        -0.24418408
  22         0.00403221
  23         0.24617068
Sym=    13a  
Ene=    -0.4352
Spin= Alpha
Occup=    2.00000
   1        -0.02305598
   2         0.09008602
   3         0.36096810
   4        -0.19591864
   5        -0.12693919
   6         0.00007597
   7        -0.00034896
   8        -0.36690127
   9         0.22113419
  10         0.14109401
  11         0.02324596
  12        -0.09088578
  13         0.33916445
  14        -0.22277206
  15        -0.14535328
  16        -0.31793136
  17         0.02428166
  18         0.01606573
  19        -0.00478855
  20         0.00722272
  21        -0.01439677
  22         0.31625795
  23        -0.02227567
Sym=    14a  
Ene=     0.6187
Spin= Alpha
Occup=    0.00000
   1        -0.00034039
   2         0.00201016
   3         0.00282681
   4        -0.27491155
   5         0.41348222
   6         0.00000530
   7         0.00011525
   8         0.00343428
   9        -0.37918881
  10         0.56808111
  11        -0.00030381
  12         0.00176993
  13         0.00290486
  14        -0.27489329
  15         0.41260004
  16        -0.00388922
  17        -0.43304829
  18         0.43710332
  19        -0.62400881
  20         0.61771246
  21        -0.43250784
  22        -0.00421679
  23         0.43642474
Sym=    15a  
Ene=     0.6278
Spin= Alpha
Occup=    0.00000
   1        -0.04462939
   2         0.26045181
   3         0.33717356
   4         0.43122473
   5         0.28717831
   6         0.00720348
   7        -0.01456212
   8         0.37623527
   9         0.44599151
  10         0.29513173
  11        -0.04487487
  12         0.26183563
  13         0.37356406
  14         0.40993025
  15         0.27201366
  16        -0.54572080
  17         0.26219810
  18         0.25598240
  19        -0.38726644
  20        -0.39668406
  21         0.26193349
  22        -0.54373466
  23         0.25451694
Sym=    16a  
Ene=     0.6653
Spin= Alpha
Occup=    0.00000
   1         0.06370355
   2        -0.36971213
   3        -0.52025319
   4         0.38356623
   5         0.25899920
   6         0.00015183
   7        -0.00094066
   8        -0.66252075
   9         0.38686122
  10         0.26171142
  11        -0.06350048
  12         0.36842177
  13        -0.61208249
  14         0.27724490
  15         0.18841283
  16        -0.45605174
  17         0.21597660
  18         0.21562516
  19         0.00101598
  20         0.00135063
  21        -0.21740487
  22         0.45905565
  23        -0.21595379
Sym=    17a  
Ene=     0.7082
Spin= Alpha
Occup=    0.00000
   1         0.07749206
   2        -0.50565830
   3         0.65003939
   4        -0.05516968
   5        -0.03132639
   6         0.14561753
   7        -0.90628228
   8         0.01080152
   9         0.01256195
  10         0.00785987
  11         0.07748905
  12        -0.50568026
  13        -0.27477772
  14         0.49237994
  15         0.32797308
  16         0.44751381
  17         0.36669308
  18         0.37422608
  19         0.35299641
  20         0.35239911
  21         0.37405642
  22         0.44615790
  23         0.36754844
Sym=    18a  
Ene=     0.7172
Spin= Alpha
Occup=    0.00000
   1         0.00039090
   2        -0.00263845
   3         0.00382788
   4         0.43253930
   5        -0.64238349
   6         0.00082471
   7        -0.00513110
   8         0.00015097
   9         0.00032929
  10         0.00081184
  11         0.00045923
  12        -0.00301842
  13        -0.00063468
  14        -0.43039344
  15         0.64434964
  16         0.00325559
  17         0.61616557
  18        -0.61301744
  19         0.00129414
  20         0.00206193
  21        -0.61206293
  22         0.00156879
  23         0.61794858
Sym=    19a  
Ene=     0.7623
Spin= Alpha
Occup=    0.00000
   1        -0.13236884
   2         0.85249829
   3        -0.49284881
   4        -0.17027328
   5        -0.11491580
   6         0.00104120
   7        -0.00631335
   8        -0.11442863
   9         0.06957944
  10         0.04806711
  11         0.13053375
  12        -0.84107304
  13         0.02461314
  14         0.44376457
  15         0.29884655
  16        -0.30940482
  17        -0.60764209
  18        -0.60701533
  19         0.00075605
  20         0.00195835
  21         0.60286450
  22         0.30867545
  23         0.60149983
Sym=    20a  
Ene=     0.7690
Spin= Alpha
Occup=    0.00000
   1         0.14826034
   2        -0.93087496
   3        -0.29051966
   4         0.29381807
   5         0.19818696
   6        -0.16021775
   7         0.97158227
   8        -0.31373577
   9        -0.36747994
  10        -0.24789562
  11         0.15007141
  12        -0.94254190
  13         0.42945213
  14        -0.12442174
  15        -0.08431601
  16         0.02926446
  17         0.42610413
  18         0.42548544
  19        -0.16631348
  20        -0.16598157
  21         0.43298534
  22         0.03521488
  23         0.43267967
Sym=    21a  
Ene=     0.7850
Spin= Alpha
Occup=    0.00000
   1        -0.04987935
   2         0.31047978
   3        -0.10770495
   4         0.37749423
   5         0.25755231
   6         0.13212545
   7        -0.84890313
   8        -0.41061202
   9        -0.49669025
  10        -0.33896938
  11        -0.04686724
  12         0.29146261
  13         0.45095407
  14         0.02820981
  15         0.02210140
  16        -0.53968762
  17         0.00579346
  18         0.00841769
  19         0.70891975
  20         0.70549117
  21         0.00267960
  22        -0.51851959
  23         0.00595984
Sym=    22a  
Ene=     0.7868
Spin= Alpha
Occup=    0.00000
   1         0.09733565
   2        -0.61660791
   3        -0.26610553
   4        -0.50595488
   5        -0.34153323
   6         0.00181253
   7        -0.01170164
   8        -0.61799323
   9         0.34899464
  10         0.23719667
  11        -0.09854961
  12         0.62415696
  13         0.50308203
  14         0.37748112
  15         0.25350882
  16         0.66542923
  17        -0.07108113
  18        -0.07038308
  19         0.01015962
  20         0.01159680
  21         0.07279094
  22        -0.68282212
  23         0.07073063
Sym=    23a  
Ene=     0.8161
Spin= Alpha
Occup=    0.00000
   1         0.00015312
   2        -0.00089338
   3        -0.00078026
   4        -0.35168530
   5         0.51636979
   6        -0.00061861
   7         0.00407368
   8         0.00066133
   9         0.50217093
  10        -0.73883037
  11         0.00018032
  12        -0.00113872
  13        -0.00048369
  14        -0.34970873
  15         0.51791540
  16         0.00203325
  17        -0.40535455
  18         0.40397438
  19         0.57891797
  20        -0.58462032
  21        -0.40426670
  22         0.00083394
  23         0.40542587
