[Molden Format]
[N_Atoms]
                   11
[Atoms] (AU)
C1          1      6           1.97202370      0.12901160      0.14613252
C2          2      6           4.84234761      0.08579357      0.11644492
C3          3      6           5.84817324     -2.14223133     -1.38940224
H4          4      1           1.28884991      1.74659827      1.23903673
H5          5      1           1.21380889     -1.59339817      1.00512643
H6          6      1           1.21443249      0.28434709     -1.77292215
H7          7      1           5.55137285     -0.01766894      2.05940463
H8          8      1           5.55095711      1.84953165     -0.70424424
H9          9      1           5.20846315     -3.93410744     -0.57721685
H10        10      1           7.91623282     -2.13695899     -1.38554720
H11        11      1           5.20895448     -2.05607872     -3.35494417
[Charge] (Mulliken)
   0.0000000000000000     
   0.0000000000000000     
   0.0000000000000000     
   0.0000000000000000     
   0.0000000000000000     
   0.0000000000000000     
   0.0000000000000000     
   0.0000000000000000     
   0.0000000000000000     
   0.0000000000000000     
   0.0000000000000000     
[GTO] (AU)
   1
   s   3
  7.161683735E+01  1.543289673E-01
  1.304509632E+01  5.353281423E-01
  3.530512160E+00  4.446345422E-01
   s   3
  2.941249355E+00 -9.996722919E-02
  6.834830964E-01  3.995128261E-01
  2.222899159E-01  7.001154689E-01
   p   3
  2.941249355E+00  1.559162750E-01
  6.834830964E-01  6.076837186E-01
  2.222899159E-01  3.919573931E-01
 
   2
   s   3
  7.161683735E+01  1.543289673E-01
  1.304509632E+01  5.353281423E-01
  3.530512160E+00  4.446345422E-01
   s   3
  2.941249355E+00 -9.996722919E-02
  6.834830964E-01  3.995128261E-01
  2.222899159E-01  7.001154689E-01
   p   3
  2.941249355E+00  1.559162750E-01
  6.834830964E-01  6.076837186E-01
  2.222899159E-01  3.919573931E-01
 
   3
   s   3
  7.161683735E+01  1.543289673E-01
  1.304509632E+01  5.353281423E-01
  3.530512160E+00  4.446345422E-01
   s   3
  2.941249355E+00 -9.996722919E-02
  6.834830964E-01  3.995128261E-01
  2.222899159E-01  7.001154689E-01
   p   3
  2.941249355E+00  1.559162750E-01
  6.834830964E-01  6.076837186E-01
  2.222899159E-01  3.919573931E-01
 
   4
   s   3
  3.425250914E+00  1.543289673E-01
  6.239137298E-01  5.353281423E-01
  1.688554040E-01  4.446345422E-01
 
   5
   s   3
  3.425250914E+00  1.543289673E-01
  6.239137298E-01  5.353281423E-01
  1.688554040E-01  4.446345422E-01
 
   6
   s   3
  3.425250914E+00  1.543289673E-01
  6.239137298E-01  5.353281423E-01
  1.688554040E-01  4.446345422E-01
 
   7
   s   3
  3.425250914E+00  1.543289673E-01
  6.239137298E-01  5.353281423E-01
  1.688554040E-01  4.446345422E-01
 
   8
   s   3
  3.425250914E+00  1.543289673E-01
  6.239137298E-01  5.353281423E-01
  1.688554040E-01  4.446345422E-01
 
   9
   s   3
  3.425250914E+00  1.543289673E-01
  6.239137298E-01  5.353281423E-01
  1.688554040E-01  4.446345422E-01
 
  10
   s   3
  3.425250914E+00  1.543289673E-01
  6.239137298E-01  5.353281423E-01
  1.688554040E-01  4.446345422E-01
 
  11
   s   3
  3.425250914E+00  1.543289673E-01
  6.239137298E-01  5.353281423E-01
  1.688554040E-01  4.446345422E-01
 
[MO]
Sym=     1a  
Ene=   -11.3570
Spin= Alpha
Occup=    2.00000
   1         0.50651763
   2         0.01262644
   3         0.00156678
   4        -0.00007554
   5        -0.00005133
   6         0.68548634
   7         0.01714679
   8        -0.00070821
   9        -0.00082890
  10        -0.00056009
  11         0.50638687
  12         0.01262305
  13        -0.00060792
  14         0.00119832
  15         0.00080990
  16         0.00197760
  17         0.00201088
  18         0.00201047
  19         0.00269997
  20         0.00270144
  21         0.00201042
  22         0.00197758
  23         0.00201064
Sym=     2a  
Ene=   -11.3310
Spin= Alpha
Occup=    2.00000
   1        -0.70256931
   2        -0.01478217
   3         0.00012808
   4        -0.00007497
   5        -0.00005068
   6        -0.00005539
   7        -0.00000119
   8         0.00204660
   9        -0.00119912
  10        -0.00081069
  11         0.70282562
  12         0.01478742
  13         0.00012803
  14        -0.00007524
  15        -0.00005088
  16        -0.00234419
  17        -0.00228800
  18        -0.00228708
  19        -0.00000017
  20        -0.00000007
  21         0.00228865
  22         0.00234555
  23         0.00228888
Sym=     3a  
Ene=   -11.3100
Spin= Alpha
Occup=    2.00000
   1         0.48688273
   2         0.00863382
   3        -0.00146282
   4        -0.00002822
   5        -0.00001882
   6        -0.71930144
   7        -0.01281882
   8        -0.00068213
   9        -0.00079815
  10        -0.00053924
  11         0.48664848
  12         0.00862959
  13         0.00045514
  14        -0.00115164
  15        -0.00077834
  16         0.00135369
  17         0.00139629
  18         0.00139552
  19        -0.00200826
  20        -0.00200945
  21         0.00139543
  22         0.00135327
  23         0.00139546
Sym=     4a  
Ene=    -1.5050
Spin= Alpha
Occup=    2.00000
   1        -0.12707719
   2         0.29921796
   3         0.05183756
   4        -0.00775699
   5        -0.00526716
   6        -0.15665584
   7         0.36954760
   8        -0.02205283
   9        -0.02582564
  10        -0.01746973
  11        -0.12707993
  12         0.29922108
  13        -0.02610426
  14         0.03790620
  15         0.02560958
  16         0.10582169
  17         0.11293963
  18         0.11295721
  19         0.13525147
  20         0.13529828
  21         0.11295278
  22         0.10584014
  23         0.11296779
Sym=     5a  
Ene=    -1.2031
Spin= Alpha
Occup=    2.00000
   1         0.15134113
   2        -0.38775784
   3         0.03945870
   4        -0.02378434
   5        -0.01606361
   6         0.00002128
   7        -0.00005214
   8         0.12916772
   9        -0.07568184
  10        -0.05116369
  11        -0.15135059
  12         0.38777364
  13         0.04021074
  14        -0.02291115
  15        -0.01549755
  16        -0.18825724
  17        -0.16227794
  18        -0.16225388
  19        -0.00002001
  20        -0.00000965
  21         0.16227517
  22         0.18827796
  23         0.16229265
Sym=     6a  
Ene=    -0.9772
Spin= Alpha
Occup=    2.00000
   1         0.07525630
   2        -0.20762740
   3         0.16127412
   4         0.05231298
   5         0.03530596
   6        -0.14028051
   7         0.39054953
   8         0.10351663
   9         0.12126175
  10         0.08189413
  11         0.07524516
  12        -0.20758704
  13         0.00579198
  14         0.14338984
  15         0.09688804
  16        -0.09042902
  17        -0.15832616
  18        -0.15822342
  19         0.24871903
  20         0.24878302
  21        -0.15827244
  22        -0.09038546
  23        -0.15821787
Sym=     7a  
Ene=    -0.7861
Spin= Alpha
Occup=    2.00000
   1        -0.00001216
   2         0.00003869
   3         0.00002351
   4        -0.16347455
   5         0.24187669
   6        -0.00001948
   7         0.00008256
   8         0.00006895
   9        -0.21246081
  10         0.31443260
  11        -0.00000312
  12         0.00001625
  13         0.00005301
  14        -0.16344457
  15         0.24188773
  16        -0.00001783
  17         0.19177007
  18        -0.19183594
  19         0.24170168
  20        -0.24158791
  21         0.19176033
  22         0.00007901
  23        -0.19185710
Sym=     8a  
Ene=    -0.7313
Spin= Alpha
Occup=    2.00000
   1        -0.01002516
   2         0.02864740
   3        -0.19202898
   4         0.27277340
   5         0.18434716
   6         0.04327994
   7        -0.13787010
   8         0.16206176
   9         0.18985031
  10         0.12825212
  11        -0.01003058
  12         0.02865009
  13         0.37442121
  14        -0.05903939
  15        -0.03997321
  16         0.32649362
  17        -0.05163910
  18        -0.05165670
  19         0.07066685
  20         0.07067560
  21        -0.05177024
  22         0.32651121
  23        -0.05163268
Sym=     9a  
Ene=    -0.6674
Spin= Alpha
Occup=    2.00000
   1        -0.00272703
   2         0.00907774
   3        -0.21210081
   4        -0.28230518
   5        -0.19027510
   6        -0.00000143
   7         0.00001297
   8         0.23593198
   9        -0.13824294
  10        -0.09356334
  11         0.00273708
  12        -0.00910041
  13         0.25025763
  14         0.25990895
  15         0.17519138
  16        -0.22135790
  17         0.20797160
  18         0.20725836
  19        -0.00007888
  20         0.00007497
  21        -0.20793745
  22         0.22131468
  23        -0.20727861
Sym=    10a  
Ene=    -0.6429
Spin= Alpha
Occup=    2.00000
   1         0.00000154
   2         0.00000148
   3        -0.00010943
   4         0.23326549
   5        -0.34572366
   6         0.00000316
   7        -0.00001070
   8         0.00013094
   9        -0.00013238
  10        -0.00018833
  11        -0.00000215
  12         0.00001377
  13         0.00037834
  14        -0.23330724
  15         0.34580923
  16        -0.00020003
  17        -0.30178807
  18         0.30221288
  19        -0.00012150
  20        -0.00001395
  21         0.30178349
  22         0.00040883
  23        -0.30237527
Sym=    11a  
Ene=    -0.5697
Spin= Alpha
Occup=    2.00000
   1         0.02611375
   2        -0.09503792
   3        -0.29297081
   4        -0.18249618
   5        -0.12236692
   6         0.02233962
   7        -0.08192324
   8         0.26480313
   9         0.30957308
  10         0.20733556
  11         0.02597147
  12        -0.09455331
  13        -0.11104563
  14        -0.28909043
  15        -0.19414456
  16        -0.17153248
  17         0.17502146
  18         0.17340643
  19         0.24125399
  20         0.24379513
  21         0.17530783
  22        -0.17284629
  23         0.17332738
Sym=    12a  
Ene=    -0.5633
Spin= Alpha
Occup=    2.00000
   1        -0.00006655
   2         0.00022807
   3         0.00091325
   4         0.14573808
   5        -0.21934375
   6         0.00009555
   7        -0.00032281
   8        -0.00103147
   9        -0.23596045
  10         0.35405701
  11         0.00025557
  12        -0.00091445
  13         0.00144466
  14         0.14518430
  15        -0.21954681
  16        -0.00225814
  17        -0.24221360
  18         0.24394632
  19         0.36814752
  20        -0.36637956
  21        -0.24250368
  22         0.00098528
  23         0.24339741
Sym=    13a  
Ene=    -0.5612
Spin= Alpha
Occup=    2.00000
   1         0.03045863
   2        -0.10721765
   3        -0.36741143
   4         0.18794251
   5         0.12520430
   6        -0.00004644
   7         0.00018943
   8         0.38041946
   9        -0.22524637
  10        -0.14945584
  11        -0.03056177
  12         0.10762085
  13        -0.33488117
  14         0.22673643
  15         0.15165121
  16         0.29816214
  17        -0.03299168
  18        -0.03028800
  19         0.00147650
  20        -0.00252816
  21         0.02964077
  22        -0.29736565
  23         0.03209598
Sym=    14a  
Ene=    -0.1892
Spin= Alpha
Occup=    0.00000
   1        -0.02694962
   2         0.15212074
   3         0.50509733
   4         0.33551753
   5         0.23359554
   6         0.03645187
   7        -0.20359009
   8         0.42247314
   9         0.51227818
  10         0.35458670
  11        -0.02829323
  12         0.15969995
  13         0.20100603
  14         0.51878439
  15         0.35621190
  16        -0.36159826
  17         0.30739607
  18         0.31721644
  19        -0.36630708
  20        -0.35355782
  21         0.30682404
  22        -0.34818186
  23         0.31485242
Sym=    15a  
Ene=    -0.1878
Spin= Alpha
Occup=    0.00000
   1         0.04133503
   2        -0.23438687
   3        -0.67287219
   4         0.23862874
   5         0.15445282
   6        -0.00051310
   7         0.00288654
   8        -0.76232925
   9         0.43846147
  10         0.28796162
  11        -0.04050276
  12         0.22963934
  13        -0.49935247
  14         0.43346543
  15         0.28727711
  16        -0.40732701
  17         0.03820625
  18         0.02838256
  19         0.01232021
  20        -0.00049121
  21        -0.03935639
  22         0.41899894
  23        -0.04763007
Sym=    16a  
Ene=    -0.1871
Spin= Alpha
Occup=    0.00000
   1         0.00073567
   2        -0.00413940
   3        -0.01230812
   4        -0.28358703
   5         0.41769759
   6        -0.00048166
   7         0.00269178
   8        -0.01196465
   9        -0.37595087
  10         0.55466961
  11        -0.00013868
  12         0.00080207
  13        -0.00757867
  14        -0.28345936
  15         0.41647340
  16        -0.00063893
  17        -0.44339344
  18         0.43801640
  19        -0.60992733
  20         0.61687293
  21        -0.44376444
  22         0.00812057
  23         0.43587462
Sym=    17a  
Ene=    -0.1701
Spin= Alpha
Occup=    0.00000
   1        -0.00014539
   2         0.00083672
   3        -0.00034181
   4         0.43098569
   5        -0.64081373
   6        -0.00009041
   7         0.00057655
   8        -0.00002347
   9         0.00040076
  10         0.00135490
  11        -0.00007947
  12         0.00050399
  13         0.00210766
  14        -0.43168906
  15         0.64074177
  16         0.00096899
  17         0.61501168
  18        -0.61744790
  19        -0.00140321
  20        -0.00001975
  21        -0.61556467
  22        -0.00234611
  23         0.61772128
Sym=    18a  
Ene=    -0.1676
Spin= Alpha
Occup=    0.00000
   1         0.01599286
   2        -0.10240356
   3         0.50760057
   4        -0.49864262
   5        -0.33723307
   6         0.08925232
   7        -0.54759351
   8         0.30085318
   9         0.35491762
  10         0.23974798
  11         0.01593409
  12        -0.10204534
  13        -0.73162021
  14         0.23332924
  15         0.15811001
  16         0.70143627
  17        -0.05253326
  18        -0.05288949
  19        -0.00770646
  20        -0.00773471
  21        -0.05004502
  22         0.69671453
  23        -0.04940167
Sym=    19a  
Ene=    -0.1644
Spin= Alpha
Occup=    0.00000
   1        -0.00358329
   2         0.01900455
   3        -0.32457113
   4        -0.60821890
   5        -0.40930685
   6        -0.00035599
   7         0.00222032
   8        -0.38378338
   9         0.22220828
  10         0.15212070
  11         0.00337088
  12        -0.01767552
  13         0.58894984
  14         0.45559690
  15         0.30477840
  16         0.52029054
  17        -0.42140991
  18        -0.41869846
  19        -0.00123746
  20         0.00099864
  21         0.42235343
  22        -0.52617017
  23         0.41831467
Sym=    20a  
Ene=    -0.1562
Spin= Alpha
Occup=    0.00000
   1         0.00135301
   2        -0.00878072
   3         0.00405587
   4        -0.34339820
   5         0.51363674
   6         0.00204359
   7        -0.01314529
   8        -0.00630245
   9         0.49958055
  10        -0.75255264
  11         0.00120282
  12        -0.00785265
  13         0.00346971
  14        -0.34115924
  15         0.51589305
  16         0.00233563
  17        -0.39270787
  18         0.40395218
  19         0.59915694
  20        -0.57956641
  21        -0.39247055
  22         0.00019394
  23         0.40526045
Sym=    21a  
Ene=    -0.1544
Spin= Alpha
Occup=    0.00000
   1         0.09299304
   2        -0.60537079
   3         0.28129356
   4         0.23008130
   5         0.14361313
   6         0.12275475
   7        -0.79967254
   8        -0.36986530
   9        -0.44076341
  10        -0.28077014
  11         0.09283990
  12        -0.60441236
  13         0.16227109
  14         0.29941650
  15         0.19200547
  16         0.11288159
  17         0.41672697
  18         0.40373785
  19         0.61051231
  20         0.62916584
  21         0.41546009
  22         0.11212555
  23         0.40455215
Sym=    22a  
Ene=    -0.1426
Spin= Alpha
Occup=    0.00000
   1         0.17092518
   2        -1.11381506
   3         0.19149632
   4        -0.08927350
   5        -0.06067064
   6        -0.00027845
   7         0.00178589
   8        -0.31715981
   9         0.18566986
  10         0.12596611
  11        -0.17075063
  12         1.11276503
  13         0.16596808
  14        -0.12026549
  15        -0.08176136
  16         0.55754698
  17         0.48088669
  18         0.48027137
  19        -0.00094882
  20        -0.00051366
  21        -0.48014794
  22        -0.55748756
  23        -0.48066889
Sym=    23a  
Ene=    -0.1364
Spin= Alpha
Occup=    0.00000
   1         0.15013006
   2        -0.97049288
   3        -0.13098644
   4        -0.00897147
   5        -0.00556043
   6        -0.19808148
   7         1.26787427
   8         0.00174107
   9         0.00253759
  10         0.00046568
  11         0.15041605
  12        -0.97240468
  13         0.03327433
  14        -0.10495878
  15        -0.07035204
  16         0.37365872
  17         0.33635128
  18         0.33663850
  19        -0.52278969
  20        -0.52437007
  21         0.33718270
  22         0.37479725
  23         0.33777436
