[Molden Format]
[N_Atoms]
                   11
[Atoms] (AU)
C1          1      6           2.37301791      0.21092178     -0.44065012
C2          2      6           0.04815211     -0.37731217      1.08531696
C3          3      6          -2.37525157      0.16854467     -0.34534745
H4          4      1           3.03262682      2.18724650     -0.23730992
H5          5      1           3.90790261     -1.06822061      0.16677211
H6          6      1           1.88322169     -0.17546107     -2.44026571
H7          7      1           0.07818175     -2.46207315      1.43829701
H8          8      1           0.03340091      0.50748973      2.97712556
H9          9      1          -3.74390839      1.06536712      0.96608847
H10        10      1          -3.18661682     -1.56814954     -1.23160255
H11        11      1          -2.05072701      1.51164673     -1.93842437
[Charge] (Mulliken)
 -0.16206675674982485     
  -8.9111843502967858E-002
 -0.15872419751023248     
   5.3648422083540148E-002
   5.3384512859671163E-002
   5.4470815164825659E-002
   4.5890382852963207E-002
   5.0846801099124206E-002
   5.2141145502413222E-002
   5.1262450428546824E-002
   4.8258267771682961E-002
[GTO] (AU)
   1
   s   3
  7.161683735E+01  1.543289673E-01
  1.304509632E+01  5.353281423E-01
  3.530512160E+00  4.446345422E-01
   s   3
  2.941249355E+00 -9.996722919E-02
  6.834830964E-01  3.995128261E-01
  2.222899159E-01  7.001154689E-01
   p   3
  2.941249355E+00  1.559162750E-01
  6.834830964E-01  6.076837186E-01
  2.222899159E-01  3.919573931E-01
 
   2
   s   3
  7.161683735E+01  1.543289673E-01
  1.304509632E+01  5.353281423E-01
  3.530512160E+00  4.446345422E-01
   s   3
  2.941249355E+00 -9.996722919E-02
  6.834830964E-01  3.995128261E-01
  2.222899159E-01  7.001154689E-01
   p   3
  2.941249355E+00  1.559162750E-01
  6.834830964E-01  6.076837186E-01
  2.222899159E-01  3.919573931E-01
 
   3
   s   3
  7.161683735E+01  1.543289673E-01
  1.304509632E+01  5.353281423E-01
  3.530512160E+00  4.446345422E-01
   s   3
  2.941249355E+00 -9.996722919E-02
  6.834830964E-01  3.995128261E-01
  2.222899159E-01  7.001154689E-01
   p   3
  2.941249355E+00  1.559162750E-01
  6.834830964E-01  6.076837186E-01
  2.222899159E-01  3.919573931E-01
 
   4
   s   3
  3.425250914E+00  1.543289673E-01
  6.239137298E-01  5.353281423E-01
  1.688554040E-01  4.446345422E-01
 
   5
   s   3
  3.425250914E+00  1.543289673E-01
  6.239137298E-01  5.353281423E-01
  1.688554040E-01  4.446345422E-01
 
   6
   s   3
  3.425250914E+00  1.543289673E-01
  6.239137298E-01  5.353281423E-01
  1.688554040E-01  4.446345422E-01
 
   7
   s   3
  3.425250914E+00  1.543289673E-01
  6.239137298E-01  5.353281423E-01
  1.688554040E-01  4.446345422E-01
 
   8
   s   3
  3.425250914E+00  1.543289673E-01
  6.239137298E-01  5.353281423E-01
  1.688554040E-01  4.446345422E-01
 
   9
   s   3
  3.425250914E+00  1.543289673E-01
  6.239137298E-01  5.353281423E-01
  1.688554040E-01  4.446345422E-01
 
  10
   s   3
  3.425250914E+00  1.543289673E-01
  6.239137298E-01  5.353281423E-01
  1.688554040E-01  4.446345422E-01
 
  11
   s   3
  3.425250914E+00  1.543289673E-01
  6.239137298E-01  5.353281423E-01
  1.688554040E-01  4.446345422E-01
 
[MO]
Sym=     1a  
Ene=   -11.0390
Spin= Alpha
Occup=    2.00000
   1        -0.02288928
   2        -0.00689886
   3         0.00357645
   4         0.00088473
   5        -0.00236351
   6         0.99144953
   7         0.03771625
   8         0.00001479
   9        -0.00038741
  10        -0.00024132
  11        -0.01876328
  12        -0.00667993
  13        -0.00366206
  14         0.00079124
  15        -0.00214517
  16         0.00020670
  17         0.00026187
  18         0.00017773
  19        -0.00679614
  20        -0.00681827
  21         0.00023349
  22         0.00025363
  23         0.00021089
Sym=     2a  
Ene=   -11.0340
Spin= Alpha
Occup=    2.00000
   1         0.99161812
   2         0.03734914
   3        -0.00016519
   4        -0.00028417
   5         0.00001763
   6         0.02359850
   7        -0.00506454
   8        -0.00363019
   9        -0.00093456
  10         0.00229065
  11        -0.01355354
  12        -0.00046225
  13        -0.00008242
  14         0.00001280
  15        -0.00004323
  16        -0.00673528
  17        -0.00681367
  18        -0.00677811
  19        -0.00010051
  20        -0.00007701
  21         0.00005100
  22         0.00012731
  23        -0.00006791
Sym=     3a  
Ene=   -11.0320
Spin= Alpha
Occup=    2.00000
   1         0.01316324
   2         0.00058956
   3         0.00008790
   4        -0.00003969
   5        -0.00004633
   6         0.02008218
   7        -0.00519909
   8         0.00355805
   9        -0.00083401
  10         0.00217255
  11         0.99173823
  12         0.03701265
  13        -0.00002691
  14         0.00018918
  15        -0.00007758
  16        -0.00006120
  17        -0.00016963
  18        -0.00029690
  19        -0.00008370
  20        -0.00000558
  21        -0.00675160
  22        -0.00665997
  23        -0.00670345
Sym=     4a  
Ene=    -1.0171
Spin= Alpha
Occup=    2.00000
   1        -0.12575118
   2         0.33965438
   3        -0.06268467
   4        -0.01687850
   5         0.03134733
   6        -0.16509889
   7         0.44499881
   8         0.00288560
   9         0.01288699
  10        -0.05055429
  11        -0.11821040
  12         0.31983767
  13         0.06158768
  14        -0.00992049
  15         0.02825236
  16         0.07258571
  17         0.07322040
  18         0.08056701
  19         0.09876978
  20         0.09671405
  21         0.06805662
  22         0.06854090
  23         0.07282589
Sym=     5a  
Ene=    -0.8825
Spin= Alpha
Occup=    2.00000
   1         0.15604514
   2        -0.45249577
   3        -0.02337303
   4         0.00647352
   5        -0.00383646
   6        -0.00376874
   7         0.01210743
   8        -0.17425874
   9         0.00001310
  10         0.00580172
  11        -0.16077627
  12         0.46709055
  13        -0.02109633
  14         0.00039352
  15         0.00555633
  16        -0.13359572
  17        -0.14350156
  18        -0.12347156
  19         0.00244344
  20         0.00610712
  21         0.14539074
  22         0.13827920
  23         0.12679788
Sym=     6a  
Ene=    -0.7567
Spin= Alpha
Occup=    2.00000
   1        -0.08951073
   2         0.27968253
   3         0.10255452
   4         0.04532755
   5        -0.11606537
   6         0.14408760
   7        -0.45227328
   8        -0.00109375
   9         0.06436413
  10        -0.14722741
  11        -0.09015029
  12         0.28227221
  13        -0.10966571
  14         0.04691271
  15        -0.11420470
  16         0.13270088
  17         0.10198970
  18         0.14925465
  19        -0.19977842
  20        -0.21554628
  21         0.10608495
  22         0.12381078
  23         0.15840053
Sym=     7a  
Ene=    -0.5937
Spin= Alpha
Occup=    2.00000
   1        -0.00734703
   2         0.02680003
   3         0.08521259
   4         0.26024203
   5         0.11530674
   6         0.00170266
   7        -0.00552994
   8        -0.01600617
   9         0.31651799
  10         0.21139212
  11        -0.00338453
  12         0.01124027
  13        -0.06284543
  14         0.23397365
  15         0.15083071
  16         0.23550061
  17        -0.04048099
  18        -0.13649099
  19        -0.22646569
  20         0.25925125
  21         0.19281236
  22        -0.18031444
  23         0.02470892
Sym=     8a  
Ene=    -0.5675
Spin= Alpha
Occup=    2.00000
   1        -0.01125255
   2         0.03584224
   3         0.34246236
   4        -0.13359739
   5         0.14423773
   6         0.02982998
   7        -0.10659408
   8         0.01876449
   9        -0.18613052
  10         0.22755520
  11        -0.01428420
  12         0.04610171
  13        -0.30415677
  14        -0.11601538
  15         0.09352912
  16         0.01126214
  17         0.32965482
  18        -0.15072203
  19         0.14766077
  20         0.05569517
  21         0.19583680
  22         0.16668121
  23        -0.15077857
Sym=     9a  
Ene=    -0.5116
Spin= Alpha
Occup=    2.00000
   1         0.00645307
   2        -0.02242401
   3        -0.03461303
   4        -0.09830428
   5         0.37568951
   6        -0.00537283
   7         0.01989429
   8         0.31759455
   9         0.05026121
  10        -0.00453404
  11        -0.00223164
  12         0.00776402
  13        -0.00244054
  14         0.14300589
  15        -0.39036373
  16        -0.07058259
  17         0.12279465
  18        -0.29980857
  19        -0.03093340
  20         0.01930119
  21        -0.16566041
  22         0.03915390
  23         0.33812135
Sym=    10a  
Ene=    -0.5048
Spin= Alpha
Occup=    2.00000
   1        -0.00067504
   2         0.00284249
   3        -0.03106159
   4        -0.39331049
   5        -0.09660701
   6         0.00295735
   7        -0.01284057
   8         0.03796049
   9         0.01612255
  10        -0.01467263
  11         0.00066368
  12        -0.00305311
  13        -0.02090243
  14         0.37534783
  15         0.14821447
  16        -0.36067958
  17         0.17831072
  18         0.15394387
  19        -0.02515813
  20        -0.00833785
  21         0.24458112
  22        -0.33838178
  23         0.11299552
Sym=    11a  
Ene=    -0.4423
Spin= Alpha
Occup=    2.00000
   1         0.01479884
   2        -0.05852469
   3         0.04553753
   4         0.00503132
   5        -0.34951479
   6         0.01437066
   7        -0.06051411
   8         0.03051926
   9        -0.04241368
  10         0.44193781
  11         0.02221343
  12        -0.08760818
  13        -0.13115543
  14         0.04383394
  15        -0.30972713
  16        -0.04207988
  17        -0.09836593
  18         0.32780647
  19         0.09355779
  20         0.36952113
  21        -0.12578167
  22         0.10682493
  23         0.22855843
Sym=    12a  
Ene=    -0.4304
Spin= Alpha
Occup=    2.00000
   1         0.02474540
   2        -0.09489423
   3         0.42010723
   4         0.01751716
   5        -0.04307151
   6         0.00077719
   7        -0.00191446
   8        -0.41659435
   9        -0.07397966
  10         0.02501068
  11        -0.01890229
  12         0.07228871
  13         0.42377280
  14         0.08488181
  15        -0.05141988
  16         0.10316800
  17         0.26455608
  18        -0.08930724
  19         0.07599148
  20        -0.01652330
  21        -0.26060275
  22        -0.18937824
  23         0.20298520
Sym=    13a  
Ene=    -0.4165
Spin= Alpha
Occup=    2.00000
   1         0.00524994
   2        -0.02260292
   3        -0.03017355
   4         0.26620404
   5        -0.00897101
   6         0.00583341
   7        -0.02306966
   8         0.08941153
   9        -0.42559198
  10        -0.01864900
  11         0.01242324
  12        -0.05143000
  13        -0.12100547
  14         0.28916340
  15        -0.00848414
  16         0.26512717
  17        -0.20883057
  18        -0.04886139
  19         0.43680411
  20        -0.23611273
  21         0.18304777
  22        -0.23409509
  23         0.17585506
Sym=    14a  
Ene=     0.5819
Spin= Alpha
Occup=    0.00000
   1         0.01563837
   2        -0.09012603
   3        -0.00705929
   4         0.38360164
   5        -0.17990891
   6        -0.00894850
   7         0.04707427
   8        -0.05121543
   9         0.70573248
  10        -0.01175891
  11         0.04010884
  12        -0.23136589
  13        -0.06202712
  14         0.52564766
  15        -0.00181428
  16        -0.34574119
  17         0.36063183
  18        -0.03080515
  19         0.73856869
  20        -0.37255459
  21        -0.15188457
  22         0.55583542
  23        -0.26628308
Sym=    15a  
Ene=     0.6077
Spin= Alpha
Occup=    0.00000
   1        -0.03962388
   2         0.23407039
   3        -0.08500218
   4         0.16218529
   5         0.53481256
   6        -0.00563453
   7         0.05093099
   8        -0.12481643
   9         0.03958384
  10         0.62325904
  11        -0.02513415
  12         0.15266842
  13        -0.19366728
  14        -0.16330171
  15         0.56904880
  16        -0.31439921
  17        -0.11669095
  18         0.45533646
  19        -0.07201872
  20        -0.61733160
  21        -0.51275016
  22        -0.05343606
  23         0.50006056
Sym=    16a  
Ene=     0.6517
Spin= Alpha
Occup=    0.00000
   1         0.03969038
   2        -0.23189405
   3         0.61649548
   4        -0.06641217
   5         0.29417376
   6         0.01246611
   7        -0.06639586
   8         0.64370904
   9         0.02085181
  10         0.19355630
  11        -0.05296119
  12         0.30675619
  13         0.71013564
  14         0.17096477
  15        -0.01197774
  16        -0.02975731
  17        -0.49618144
  18         0.53455012
  19         0.03089544
  20        -0.16931392
  21         0.26916142
  22         0.24849020
  23        -0.39904682
Sym=    17a  
Ene=     0.6776
Spin= Alpha
Occup=    0.00000
   1         0.07304920
   2        -0.46271382
   3        -0.44467899
   4         0.34804279
   5         0.40839455
   6         0.11427864
   7        -0.70533855
   8        -0.05361968
   9         0.01662943
  10        -0.06829642
  11         0.07524885
  12        -0.47111031
  13         0.44081358
  14        -0.39935854
  15         0.00178921
  16        -0.04428224
  17         0.59690191
  18         0.48891272
  19         0.29994133
  20         0.33290654
  21         0.62823509
  22         0.01990753
  23         0.31946302
Sym=    18a  
Ene=     0.7044
Spin= Alpha
Occup=    0.00000
   1         0.06111082
   2        -0.38968320
   3        -0.32639747
   4        -0.72395482
   5         0.10349863
   6         0.04442498
   7        -0.28203688
   8        -0.12303234
   9        -0.02486089
  10         0.02332560
  11         0.05957066
  12        -0.37229476
  13         0.11613011
  14         0.44196460
  15         0.46977199
  16         0.88099589
  17        -0.06143814
  18         0.05784153
  19         0.03963962
  20         0.09716852
  21        -0.23133080
  22         0.70633574
  23         0.19280909
Sym=    19a  
Ene=     0.7387
Spin= Alpha
Occup=    0.00000
   1        -0.13995617
   2         0.88472916
   3         0.24263130
   4         0.07790439
   5        -0.24726006
   6        -0.00234945
   7         0.01256084
   8        -0.03212031
   9        -0.12179578
  10        -0.00341605
  11         0.15445805
  12        -0.97182202
  13         0.33865183
  14        -0.07927670
  15         0.31942307
  16        -0.48329401
  17        -0.41288002
  18        -0.56026923
  19        -0.11519863
  20         0.03868413
  21         0.44606603
  22         0.57246541
  23         0.63925200
Sym=    20a  
Ene=     0.7694
Spin= Alpha
Occup=    0.00000
   1         0.13735763
   2        -0.85324448
   3         0.31483258
   4        -0.02938198
   5        -0.03349431
   6        -0.21329702
   7         1.31396627
   8        -0.06522249
   9         0.14947688
  10        -0.08825300
  11         0.14381396
  12        -0.88880782
  13        -0.26187567
  14        -0.15844343
  15        -0.25562500
  16         0.30289213
  17         0.16989549
  18         0.36746955
  19        -0.40195152
  20        -0.56724925
  21         0.43829876
  22         0.08836988
  23         0.30897561
Sym=    21a  
Ene=     0.7827
Spin= Alpha
Occup=    0.00000
   1         0.09069945
   2        -0.56607052
   3        -0.01951850
   4         0.08330761
   5        -0.70530318
   6        -0.00544935
   7         0.03555017
   8         0.87104848
   9         0.16405580
  10         0.08796979
  11        -0.05896991
  12         0.36309772
  13         0.15430583
  14        -0.39902602
  15         0.55787321
  16         0.22587218
  17         0.44078816
  18        -0.34915103
  19         0.07659287
  20        -0.13025427
  21        -0.20396796
  22        -0.18607550
  23         0.40862383
Sym=    22a  
Ene=     0.7961
Spin= Alpha
Occup=    0.00000
   1         0.00364090
   2        -0.02253540
   3         0.54573621
   4        -0.30701148
   5         0.21614739
   6         0.04840503
   7        -0.32034179
   8         0.00264056
   9         0.59033605
  10        -0.61884520
  11         0.01986832
  12        -0.12896112
  13        -0.39634480
  14        -0.38437804
  15         0.16663674
  16         0.07325658
  17        -0.55172815
  18         0.21771204
  19         0.68260991
  20         0.36277212
  21        -0.13239847
  22        -0.31935867
  23         0.41970159
Sym=    23a  
Ene=     0.8435
Spin= Alpha
Occup=    0.00000
   1         0.06417981
   2        -0.41324793
   3         0.28908232
   4         0.55086377
   5         0.12595997
   6        -0.03204105
   7         0.19088184
   8         0.21305168
   9        -0.53550126
  10        -0.67438342
  11         0.00795635
  12        -0.04827689
  13        -0.26846509
  14         0.41838708
  15         0.43337856
  16        -0.34501046
  17         0.23802088
  18         0.38078247
  19        -0.40768327
  20         0.60350842
  21        -0.48449342
  22         0.35213402
  23         0.08346622
