[Molden Format]
[N_Atoms]
                   11
[Atoms] (AU)
C1          1      6           2.37301791      0.21092178     -0.44065012
C2          2      6           0.04815211     -0.37731217      1.08531696
C3          3      6          -2.37525157      0.16854467     -0.34534745
H4          4      1           3.03262682      2.18724650     -0.23730992
H5          5      1           3.90790261     -1.06822061      0.16677211
H6          6      1           1.88322169     -0.17546107     -2.44026571
H7          7      1           0.07818175     -2.46207315      1.43829701
H8          8      1           0.03340091      0.50748973      2.97712556
H9          9      1          -3.74390839      1.06536712      0.96608847
H10        10      1          -3.18661682     -1.56814954     -1.23160255
H11        11      1          -2.05072701      1.51164673     -1.93842437
[Charge] (Mulliken)
   0.0000000000000000     
   0.0000000000000000     
   0.0000000000000000     
   0.0000000000000000     
   0.0000000000000000     
   0.0000000000000000     
   0.0000000000000000     
   0.0000000000000000     
   0.0000000000000000     
   0.0000000000000000     
   0.0000000000000000     
[GTO] (AU)
   1
   s   3
  7.161683735E+01  1.543289673E-01
  1.304509632E+01  5.353281423E-01
  3.530512160E+00  4.446345422E-01
   s   3
  2.941249355E+00 -9.996722919E-02
  6.834830964E-01  3.995128261E-01
  2.222899159E-01  7.001154689E-01
   p   3
  2.941249355E+00  1.559162750E-01
  6.834830964E-01  6.076837186E-01
  2.222899159E-01  3.919573931E-01
 
   2
   s   3
  7.161683735E+01  1.543289673E-01
  1.304509632E+01  5.353281423E-01
  3.530512160E+00  4.446345422E-01
   s   3
  2.941249355E+00 -9.996722919E-02
  6.834830964E-01  3.995128261E-01
  2.222899159E-01  7.001154689E-01
   p   3
  2.941249355E+00  1.559162750E-01
  6.834830964E-01  6.076837186E-01
  2.222899159E-01  3.919573931E-01
 
   3
   s   3
  7.161683735E+01  1.543289673E-01
  1.304509632E+01  5.353281423E-01
  3.530512160E+00  4.446345422E-01
   s   3
  2.941249355E+00 -9.996722919E-02
  6.834830964E-01  3.995128261E-01
  2.222899159E-01  7.001154689E-01
   p   3
  2.941249355E+00  1.559162750E-01
  6.834830964E-01  6.076837186E-01
  2.222899159E-01  3.919573931E-01
 
   4
   s   3
  3.425250914E+00  1.543289673E-01
  6.239137298E-01  5.353281423E-01
  1.688554040E-01  4.446345422E-01
 
   5
   s   3
  3.425250914E+00  1.543289673E-01
  6.239137298E-01  5.353281423E-01
  1.688554040E-01  4.446345422E-01
 
   6
   s   3
  3.425250914E+00  1.543289673E-01
  6.239137298E-01  5.353281423E-01
  1.688554040E-01  4.446345422E-01
 
   7
   s   3
  3.425250914E+00  1.543289673E-01
  6.239137298E-01  5.353281423E-01
  1.688554040E-01  4.446345422E-01
 
   8
   s   3
  3.425250914E+00  1.543289673E-01
  6.239137298E-01  5.353281423E-01
  1.688554040E-01  4.446345422E-01
 
   9
   s   3
  3.425250914E+00  1.543289673E-01
  6.239137298E-01  5.353281423E-01
  1.688554040E-01  4.446345422E-01
 
  10
   s   3
  3.425250914E+00  1.543289673E-01
  6.239137298E-01  5.353281423E-01
  1.688554040E-01  4.446345422E-01
 
  11
   s   3
  3.425250914E+00  1.543289673E-01
  6.239137298E-01  5.353281423E-01
  1.688554040E-01  4.446345422E-01
 
[MO]
Sym=     1a  
Ene=   -11.3570
Spin= Alpha
Occup=    2.00000
   1         0.51553586
   2         0.01287516
   3        -0.00136312
   4        -0.00032263
   5         0.00082157
   6         0.68760830
   7         0.01722875
   8         0.00003542
   9         0.00043468
  10        -0.00115273
  11         0.49426136
  12         0.01237056
  13         0.00137374
  14        -0.00028216
  15         0.00073883
  16         0.00195024
  17         0.00198853
  18         0.00207000
  19         0.00262669
  20         0.00262358
  21         0.00189145
  22         0.00184678
  23         0.00191631
Sym=     2a  
Ene=   -11.3310
Spin= Alpha
Occup=    2.00000
   1        -0.69168650
   2        -0.01452734
   3        -0.00016440
   4        -0.00000011
   5         0.00000687
   6         0.00566181
   7         0.00012226
   8        -0.00256631
   9        -0.00002311
  10         0.00005745
  11         0.71358374
  12         0.01501743
  13        -0.00014163
  14        -0.00000203
  15         0.00001142
  16        -0.00221504
  17        -0.00224979
  18        -0.00212379
  19         0.00001788
  20         0.00003786
  21         0.00229970
  22         0.00224705
  23         0.00217740
Sym=     3a  
Ene=   -11.3100
Spin= Alpha
Occup=    2.00000
   1         0.49301551
   2         0.00870404
   3         0.00119579
   4         0.00032904
   5        -0.00085352
   6        -0.71727568
   7        -0.01271785
   8         0.00001269
   9         0.00042811
  10        -0.00110912
  11         0.48358070
  12         0.00855419
  13        -0.00120192
  14         0.00029845
  15        -0.00077781
  16         0.00136622
  17         0.00132041
  18         0.00136687
  19        -0.00185948
  20        -0.00198391
  21         0.00128600
  22         0.00129944
  23         0.00135720
Sym=     4a  
Ene=    -1.5020
Spin= Alpha
Occup=    2.00000
   1        -0.12864197
   2         0.30356683
   3        -0.05008426
   4        -0.01249437
   5         0.02015619
   6        -0.15725719
   7         0.37184387
   8         0.00093020
   9         0.00886681
  10        -0.03816347
  11        -0.12421684
  12         0.29487032
  13         0.05079457
  14        -0.00787533
  15         0.01824638
  16         0.10590122
  17         0.10845010
  18         0.12218747
  19         0.13881063
  20         0.13046089
  21         0.10340987
  22         0.10492010
  23         0.11399990
Sym=     5a  
Ene=    -1.1902
Spin= Alpha
Occup=    2.00000
   1         0.14945191
   2        -0.38642628
   3        -0.04769363
   4         0.00401895
   5        -0.00298816
   6        -0.00085510
   7         0.00265983
   8        -0.16453232
   9         0.00161057
  10         0.00580897
  11        -0.15276188
  12         0.39681679
  13        -0.04772930
  14         0.00162271
  15         0.00403687
  16        -0.16968696
  17        -0.18641192
  18        -0.14570712
  19        -0.00100857
  20         0.00659375
  21         0.18807267
  22         0.17542722
  23         0.15335583
Sym=     6a  
Ene=    -0.9711
Spin= Alpha
Occup=    2.00000
   1        -0.07471803
   2         0.20859647
   3         0.08239744
   4         0.05830692
   5        -0.13888398
   6         0.13712016
   7        -0.38442048
   8         0.00120434
   9         0.07373824
  10        -0.17280391
  11        -0.07294029
  12         0.20420209
  13        -0.09096247
  14         0.05811543
  15        -0.14167228
  16         0.14089553
  17         0.08226532
  18         0.17678541
  19        -0.23992080
  20        -0.25900848
  21         0.08738389
  22         0.12257913
  23         0.19240677
Sym=     7a  
Ene=    -0.7845
Spin= Alpha
Occup=    2.00000
   1        -0.00732281
   2         0.02508561
   3         0.05249219
   4         0.26480352
   5         0.10578174
   6         0.00048733
   7         0.00122000
   8        -0.01165611
   9         0.33121289
  10         0.18125893
  11        -0.00272893
  12         0.00770604
  13        -0.04358381
  14         0.25320195
  15         0.14479240
  16         0.23082789
  17        -0.06385120
  18        -0.12170960
  19        -0.24109473
  20         0.24355295
  21         0.18779678
  22        -0.19796390
  23         0.03843391
Sym=     8a  
Ene=    -0.7354
Spin= Alpha
Occup=    2.00000
   1        -0.01340858
   2         0.04126251
   3         0.35618019
   4        -0.09912383
   5         0.14084899
   6         0.04876616
   7        -0.15381577
   8         0.01884777
   9        -0.15218424
  10         0.21812895
  11        -0.01595267
  12         0.04942140
  13        -0.32948264
  14        -0.10061187
  15         0.10154920
  16         0.05170029
  17         0.32559155
  18        -0.15299928
  19         0.08988073
  20         0.03352894
  21         0.22321794
  22         0.16815903
  23        -0.14389782
Sym=     9a  
Ene=    -0.6575
Spin= Alpha
Occup=    2.00000
   1         0.00565152
   2        -0.02110853
   3        -0.01677348
   4        -0.08744960
   5         0.37975756
   6        -0.00641559
   7         0.02110288
   8         0.30811346
   9         0.04171428
  10         0.00875428
  11         0.00020741
  12         0.00082200
  13         0.01017989
  14         0.13886800
  15        -0.39874198
  16        -0.05947975
  17         0.12687908
  18        -0.29852081
  19        -0.01613778
  20         0.02565681
  21        -0.17932691
  22         0.04635508
  23         0.33417431
Sym=    10a  
Ene=    -0.6531
Spin= Alpha
Occup=    2.00000
   1        -0.00088395
   2         0.00148901
   3        -0.01244026
   4        -0.40054468
   5        -0.09226215
   6         0.00351683
   7        -0.01287775
   8         0.03896787
   9         0.00259306
  10        -0.01247660
  11         0.00079384
  12        -0.00333208
  13        -0.01539491
  14         0.37932409
  15         0.13157374
  16        -0.35857257
  17         0.19449256
  18         0.14635950
  19        -0.01676122
  20        -0.01329030
  21         0.23444240
  22        -0.33531533
  23         0.12381143
Sym=    11a  
Ene=    -0.5727
Spin= Alpha
Occup=    2.00000
   1         0.02092740
   2        -0.07409868
   3         0.06629517
   4         0.01876358
   5        -0.35457124
   6         0.02283672
   7        -0.08071892
   8         0.02923001
   9        -0.05762631
  10         0.44990315
  11         0.03018922
  12        -0.10819369
  13        -0.14734493
  14         0.05051694
  15        -0.30248533
  16        -0.03522984
  17        -0.10957698
  18         0.31402632
  19         0.09628193
  20         0.36135229
  21        -0.12716090
  22         0.08983833
  23         0.21505237
Sym=    12a  
Ene=    -0.5576
Spin= Alpha
Occup=    2.00000
   1         0.03389294
   2        -0.11642390
   3         0.42209933
   4         0.05827550
   5        -0.04863505
   6         0.00336034
   7        -0.01105204
   8        -0.42793693
   9        -0.11792458
  10         0.02711871
  11        -0.02495074
  12         0.08564713
  13         0.40825903
  14         0.10110575
  15        -0.03736327
  16         0.12763862
  17         0.21939856
  18        -0.11479126
  19         0.12017005
  20        -0.04002478
  21        -0.22035235
  22        -0.18901925
  23         0.21295534
Sym=    13a  
Ene=    -0.5475
Spin= Alpha
Occup=    2.00000
   1         0.00227020
   2        -0.00928030
   3        -0.07716053
   4         0.26276675
   5         0.00459377
   6         0.00811389
   7        -0.03029957
   8         0.13024020
   9        -0.42002947
  10        -0.03226072
  11         0.01744191
  12        -0.06397869
  13        -0.16089370
  14         0.27601937
  15         0.00403915
  16         0.25332956
  17        -0.23240664
  18        -0.04867869
  19         0.42330292
  20        -0.24558458
  21         0.19960965
  22        -0.22113049
  23         0.13832557
Sym=    14a  
Ene=    -0.1991
Spin= Alpha
Occup=    0.00000
   1         0.01486503
   2        -0.08375951
   3         0.09909255
   4         0.28871646
   5        -0.36551583
   6        -0.01777893
   7         0.10360433
   8        -0.02194567
   9         0.68058394
  10        -0.23240000
  11         0.02811607
  12        -0.15955507
  13        -0.12309835
  14         0.55938226
  15        -0.19174805
  16        -0.25960435
  17         0.28627403
  18        -0.21301733
  19         0.71832181
  20        -0.18197039
  21        -0.10431656
  22         0.45958275
  23        -0.44716912
Sym=    15a  
Ene=    -0.1935
Spin= Alpha
Occup=    0.00000
   1        -0.02150284
   2         0.12392444
   3        -0.34090680
   4         0.25743188
   5         0.47957456
   6         0.00976420
   7        -0.05321446
   8        -0.34218590
   9         0.23199506
  10         0.52990079
  11         0.00602142
  12        -0.02986178
  13        -0.30646860
  14        -0.01455663
  15         0.49475624
  16        -0.29668455
  17         0.20787658
  18         0.40381648
  19         0.18822548
  20        -0.58257550
  21        -0.52449761
  22         0.08709512
  23         0.44010935
Sym=    16a  
Ene=    -0.1887
Spin= Alpha
Occup=    0.00000
   1         0.01868034
   2        -0.10540043
   3         0.53752623
   4         0.08071068
   5         0.20629445
   6         0.01761723
   7        -0.09826726
   8         0.71155747
   9         0.07864973
  10         0.35766109
  11        -0.03070249
  12         0.17592450
  13         0.75290472
  14         0.10355411
  15         0.27318278
  16        -0.20021716
  17        -0.39666007
  18         0.42749885
  19         0.08180429
  20        -0.33179578
  21         0.20111181
  22         0.37926709
  23        -0.11429459
Sym=    17a  
Ene=    -0.1757
Spin= Alpha
Occup=    0.00000
   1         0.01267003
   2        -0.07612247
   3        -0.08370125
   4         0.78287149
   5         0.10905891
   6         0.03213704
   7        -0.19399600
   8         0.05991340
   9         0.04738216
  10        -0.06254354
  11         0.01397637
  12        -0.08522695
  13         0.20451105
  14        -0.57450108
  15        -0.38903140
  16        -0.65635430
  17         0.52180781
  18         0.22472403
  19         0.16141371
  20         0.11549320
  21         0.62705917
  22        -0.48854950
  23         0.04613979
Sym=    18a  
Ene=    -0.1703
Spin= Alpha
Occup=    0.00000
   1         0.03766628
   2        -0.23862042
   3        -0.62228955
   4        -0.14359871
   5         0.47167105
   6         0.08615183
   7        -0.53604410
   8        -0.44293109
   9        -0.24396758
  10         0.19742737
  11         0.04503064
  12        -0.28094459
  13         0.46205827
  14         0.43632962
  15        -0.30700418
  16         0.35944859
  17         0.31375805
  18         0.36034661
  19        -0.00930360
  20         0.16859274
  21         0.39569549
  22         0.49032437
  23        -0.43655685
Sym=    19a  
Ene=    -0.1668
Spin= Alpha
Occup=    0.00000
   1         0.01592051
   2        -0.10349518
   3        -0.52310042
   4         0.10480916
   5        -0.65145814
   6         0.05770781
   7        -0.36077135
   8         0.42516759
   9        -0.12792146
  10         0.19600641
  11         0.03312245
  12        -0.20612051
  13         0.40552050
  14        -0.11939034
  15         0.58710963
  16         0.15270569
  17         0.60100904
  18        -0.62539124
  19        -0.01999217
  20         0.07511213
  21         0.03765027
  22         0.34729607
  23         0.48583098
Sym=    20a  
Ene=    -0.1590
Spin= Alpha
Occup=    0.00000
   1         0.08993323
   2        -0.57125951
   3         0.08637910
   4        -0.48833448
   5         0.19868023
   6         0.07621525
   7        -0.49133598
   8         0.03710426
   9         0.64976832
  10        -0.34691873
  11         0.06890500
  12        -0.43920894
  13        -0.02130474
  14        -0.47117010
  15         0.16248642
  16         0.57091242
  17        -0.12260381
  18         0.30847371
  19         0.73319187
  20         0.20579444
  21         0.24621173
  22        -0.12416749
  23         0.51478518
Sym=    21a  
Ene=    -0.1547
Spin= Alpha
Occup=    0.00000
   1        -0.01601435
   2         0.09302142
   3         0.28543603
   4         0.38512979
   5         0.28735491
   6         0.04651776
   7        -0.30432412
   8        -0.03834875
   9        -0.39269503
  10        -0.75452735
  11         0.07620945
  12        -0.48668772
  13        -0.12873943
  14         0.31139342
  15         0.48514612
  16        -0.44294157
  17        -0.08012170
  18         0.26009448
  19        -0.09404137
  20         0.81120523
  21        -0.23370476
  22         0.50841106
  23         0.33846903
Sym=    22a  
Ene=    -0.1472
Spin= Alpha
Occup=    0.00000
   1         0.14978389
   2        -0.96832744
   3        -0.13079099
   4         0.16390155
   5         0.03760354
   6         0.03998171
   7        -0.25161727
   8         0.48537606
   9        -0.10496788
  10        -0.18643353
  11        -0.17741415
  12         1.13407833
  13        -0.16460392
  14         0.12298308
  15         0.15788572
  16         0.30177984
  17         0.51772579
  18         0.44752439
  19         0.03591720
  20         0.28446650
  21        -0.65153950
  22        -0.37806371
  23        -0.43132729
Sym=    23a  
Ene=    -0.1378
Spin= Alpha
Occup=    0.00000
   1         0.17115280
   2        -1.10156260
   3         0.18309348
   4         0.13966776
   5        -0.08902731
   6        -0.20340860
   7         1.29598068
   8         0.08910133
   9        -0.08996052
  10        -0.13099520
  11         0.12382774
  12        -0.78869641
  13        -0.19040801
  14         0.05074912
  15        -0.05586502
  16         0.30095396
  17         0.43138280
  18         0.40045353
  19        -0.55399778
  20        -0.41816230
  21         0.24660464
  22         0.27539328
  23         0.24581850
