************************************************
*** WorkDir at /scratch/lila/propane cleaned ***
************************************************
   This run of MOLCAS is using the pymolcas driver

                             OPE
                             OPE          NMOL  CASOP  ENMOLC A   SO
                 OPE        NMOLC        AS  OP EN  MO LC     AS  OP
                OPENM       OL CA        SO  PE NM  OL CA     SOP EN
                OP EN      MO   LC       AS  OP ENMOL  CASO   PENMOL
                OP  EN     MO   LC       AS  OP EN     MO     LC ASO
               OP   E  NMOL  C  AS       OP  EN MO     LC     AS  OP
               OP  E   NMO   LC AS        OPEN  MO     LCASOP EN   M
               O  PEN   MO  LCA  SO
            OPE   NMO   L   CAS    OP
        OPENMOL  CASOP     ENMOL   CASOPE
     OPENMOLCA   SOPENMOLCASOPEN   MOLCASOPE
    OPENMOLCAS   OP           EN   MOL    CAS
    OPENMOLCAS       OP  ENM        O     LCA
    OPENMOLCAS    OPEN  MOLCASO     P  E  NMO
    OPENMOLCAS     OP               E  N  MOL
    OPENMOLCA   SO           PENM   O  L  CAS    OPEN    MO    LCAS
    OPENMOLCA   SOP           ENM   O  L  CAS   OP  EN  MOLC  AS   O
    OPENMOLCA   SOPE           NM      O  LCA   S      OP  EN MO
    OPENMOLC                AS         O  PEN   M      OL  CA  SOPE
    OPENMO        LCASOPE  NMOL        C  ASO   P      ENMOLC     AS
    OPE     NMO      LCA  SO     P     E   NM   OL  CA SO  PE N   MO
          OPENMOLCA            SOPE   NMO        LCAS  O    P  ENMO
     OPENMOLCASOPENMOLCASOPENMOLCASOPENMOLCA
        OPENMOLCASOPENMOLCASOPENMOLCASOPE
            OPENMOLCASOPENMOLCASOPENM
               OPENMOLCASOPENMOLCA        version: 25.02
                   OPENMOLCASO
                       OPE                tag: 153-g96e33fe91-dirty

 OpenMolcas is free software; you can redistribute it and/or modify it
 under the terms of the GNU Lesser General Public License version 2.1.
 OpenMolcas is distributed in the hope that it will be useful, but it
 is provided "as is" and without any express or implied warranties.
 For more details see the full text of the license in the file
 LICENSE or in <http://www.gnu.org/licenses/>.

                 Copyright (C) The OpenMolcas Authors
           For the author list and the recommended citation,
                   consult the file CONTRIBUTORS.md

           *************************************************
           * pymolcas version py2.29                       *
           *   build c0481229b6f3f65ed2c83878be511d3d      *
           *   (after the EMIL interpreter by V. Veryazov) *
           *************************************************

configuration info
------------------
Host name: Spaceship (Linux)
C Compiler ID: GNU
C flags: -std=gnu99
Fortran Compiler ID: GNU
Fortran flags: -fno-aggressive-loop-optimizations -cpp -fdefault-integer-8 -fmax-stack-var-size=1048576
Definitions: _MOLCAS_;_I8_;_LINUX_
Parallel: OFF (GA=OFF)


   --------------------------------------------------------------------------
  |
  |              Project: propane
  |       Submitted from: /home/lila/MD/topology_code/OpenMolcas_Calc
  |         Scratch area: /scratch/lila/propane
  |      Save outputs to: /home/lila/MD/topology_code/OpenMolcas_Calc/propane
  |               Molcas: /home/lila/build_OpenMolcas
  |
  | Scratch area is empty
  |
  |       MOLCAS_DRIVER = /home/lila/build_OpenMolcas/pymolcas
  | MOLCAS_KEEP_WORKDIR = YES
  |       MOLCAS_MOLDEN = YES
  | MOLCAS_NEW_DEFAULTS = NO
  |  MOLCAS_NEW_WORKDIR = YES
  |       MOLCAS_NPROCS = 1
  |        MOLCAS_PRINT = NORMAL
  |         MOLCAS_SAVE = REPL
  |       MOLCAS_SOURCE = /home/lila/OpenMolcas
  |    MOLCAS_STRUCTURE = 0
  |         MOLCAS_TRAP = YES
  |
   --------------------------------------------------------------------------

++ ---------   Input file   ---------

&GATEWAY
    coord=propane.xyz
    basis=STO-3G
    group=nosymm

&SEWARD

&SCF

-- ----------------------------------

--- Start Module: gateway at Sat Nov 29 16:23:23 2025 ---

()()()()()()()()()()()()()()()()()()()()()()()()()()()()()()()()()()()()()()()()()()()()()()()()()()

                                              &GATEWAY

                                   only a single process is used
                       available to each process: 2.0 GB of memory, 1 thread?
                                             pid: 26406
()()()()()()()()()()()()()()()()()()()()()()()()()()()()()()()()()()()()()()()()()()()()()()()()()()


++    Symmetry information:
      ---------------------

                    Character Table for C1 

                             E  
                    a        1  x, y, xy, Rz, z, xz, Ry, yz, Rx, I
--


++    Basis set information:
      ----------------------


      Basis set label: C.STO-3G.........

      Electronic valence basis set:
      ------------------
      Associated Effective Charge   6.000000 au
      Associated Actual Charge      6.000000 au
      Nuclear Model: Point charge

      Shell  nPrim  nBasis  Cartesian Spherical Contaminant
         s       6       2        X                  
         p       3       1        X                  


      Basis set label: H.STO-3G.........

      Electronic valence basis set:
      ------------------
      Associated Effective Charge   1.000000 au
      Associated Actual Charge      1.000000 au
      Nuclear Model: Point charge

      Shell  nPrim  nBasis  Cartesian Spherical Contaminant
         s       3       1        X                  
--


++    Molecular structure info:
      -------------------------

                    ************************************************ 
                    **** Cartesian Coordinates / bohr, angstrom **** 
                    ************************************************ 

     Center  Label                x              y              z                     x              y              z
        1      C1               2.373018       0.210922      -0.440650              1.255747       0.111615      -0.233182
        2      C2               0.048152      -0.377312       1.085317              0.025481      -0.199665       0.574325
        3      C3              -2.375252       0.168545      -0.345347             -1.256929       0.089190      -0.182750
        4      H4               3.032627       2.187246      -0.237310              1.604797       1.157441      -0.125579
        5      H5               3.907903      -1.068221       0.166772              2.067973      -0.565278       0.088252
        6      H6               1.883222      -0.175461      -2.440266              0.996558      -0.092850      -1.291333
        7      H7               0.078182      -2.462073       1.438297              0.041372      -1.302873       0.761114
        8      H8               0.033401       0.507490       2.977126              0.017675       0.268552       1.575427
        9      H9              -3.743908       1.065367       0.966088             -1.981191       0.563768       0.511232
       10      H10             -3.186617      -1.568150      -1.231603             -1.686285      -0.829829      -0.651736
       11      H11             -2.050727       1.511647      -1.938424             -1.085198       0.799929      -1.025770

                    *************************************** 
                    *    InterNuclear Distances / bohr    * 
                    *************************************** 

               1 C1            2 C2            3 C3            4 H4            5 H5            6 H6    
    1 C1       0.000000
    2 C2       2.842463        0.000000
    3 C3       4.749415        2.866644        0.000000
    4 H4       2.093392        4.151312        5.773385        0.000000
    5 H5       2.088310        4.027251        6.424164        3.395211        0.000000
    6 H6       2.094673        3.979693        4.758321        3.428780        3.419503        0.000000
    7 H7       3.992695        2.114645        4.015081        5.757827        4.269234        4.850774
    8 H8       4.152463        2.088548        4.117684        4.706329        5.039118        5.765101
    9 H9       6.334491        4.058973        2.096992        6.973393        7.983816        6.693840
   10 H10      5.890691        4.153305        2.111840        7.332845        7.248282        5.394785
   11 H11      4.848168        4.137206        2.108823        5.402843        6.825894        4.309771

               7 H7            8 H8            9 H9           10 H10          11 H11   
    7 H7       0.000000
    8 H8       3.344892        0.000000
    9 H9       5.222470        4.315503        0.000000
   10 H10      4.311192        5.691238        3.475029        0.000000
   11 H11      5.632491        5.432730        3.391493        3.357825        0.000000

                    ******************************************* 
                    *    InterNuclear Distances / angstrom    * 
                    ******************************************* 

               1 C1            2 C2            3 C3            4 H4            5 H5            6 H6    
    1 C1       0.000000
    2 C2       1.504167        0.000000
    3 C3       2.513282        1.516962        0.000000
    4 H4       1.107775        2.196780        3.055144        0.000000
    5 H5       1.105086        2.131130        3.399521        1.796668        0.000000
    6 H6       1.108453        2.105963        2.517995        1.814432        1.809523        0.000000
    7 H7       2.112843        1.119022        2.124689        3.046911        2.259182        2.566919
    8 H8       2.197389        1.105212        2.178984        2.490482        2.666587        3.050760
    9 H9       3.352068        2.147916        1.109680        3.690161        4.224853        3.542228
   10 H10      3.117219        2.197834        1.117538        3.880374        3.835625        2.854798
   11 H11      2.565540        2.189315        1.115941        2.859061        3.612108        2.280633

               7 H7            8 H8            9 H9           10 H10          11 H11   
    7 H7       0.000000
    8 H8       1.770041        0.000000
    9 H9       2.763612        2.283666        0.000000
   10 H10      2.281384        3.011673        1.838906        0.000000
   11 H11      2.980586        2.874877        1.794701        1.776884        0.000000

                    ************************************** 
                    *    Valence Bond Angles / degree    * 
                    ************************************** 
                          Atom centers                 Phi
                      2 C2       1 C1       4 H4       113.64
                      2 C2       1 C1       5 H5       108.56
                      2 C2       1 C1       6 H6       106.44
                      4 H4       1 C1       5 H5       108.57
                      4 H4       1 C1       6 H6       109.91
                      5 H5       1 C1       6 H6       109.67
                      1 C1       2 C2       3 C3       112.59
                      1 C1       2 C2       7 H7       106.38
                      1 C1       2 C2       8 H8       113.85
                      3 C3       2 C2       7 H7       106.44
                      3 C3       2 C2       8 H8       111.43
                      7 H7       2 C2       8 H8       105.46
                      2 C2       3 C3       9 H9       108.73
                      2 C2       3 C3      10 H10      112.19
                      2 C2       3 C3      11 H11      111.60
                      9 H9       3 C3      10 H10      111.31
                      9 H9       3 C3      11 H11      107.49
                     10 H10      3 C3      11 H11      105.42

           ***************************************************************
           *              Valence Dihedral Angles / degree               *
           ***************************************************************
                    Atom centers                       Phi1     Phi2     Theta 
           4 H4       1 C1       2 C2       7 H7        113.64   106.38  -155.06
           4 H4       1 C1       2 C2       8 H8        113.64   113.85   -39.36
           5 H5       1 C1       2 C2       7 H7        108.56   106.38   -34.16
           5 H5       1 C1       2 C2       8 H8        108.56   113.85    81.55
           6 H6       1 C1       2 C2       7 H7        106.44   106.38    83.82
           6 H6       1 C1       2 C2       8 H8        106.44   113.85  -160.47
           3 C3       2 C2       1 C1       4 H4        112.59   113.64    88.72
           3 C3       2 C2       1 C1       5 H5        112.59   108.56  -150.38
           3 C3       2 C2       1 C1       6 H6        112.59   106.44   -32.40
           1 C1       2 C2       3 C3       9 H9        112.59   108.73  -138.78
           1 C1       2 C2       3 C3      10 H10       112.59   112.19    97.67
           1 C1       2 C2       3 C3      11 H11       112.59   111.60   -20.39
           7 H7       2 C2       3 C3       9 H9        106.44   108.73   105.03
           7 H7       2 C2       3 C3      10 H10       106.44   112.19   -18.52
           7 H7       2 C2       3 C3      11 H11       106.44   111.60  -136.57
           8 H8       2 C2       3 C3       9 H9        111.43   108.73    -9.45
           8 H8       2 C2       3 C3      10 H10       111.43   112.19  -133.00
           8 H8       2 C2       3 C3      11 H11       111.43   111.60   108.95
--


            Nuclear Potential Energy             82.70752835 au

--- Stop Module: gateway at Sat Nov 29 16:23:23 2025 /rc=_RC_ALL_IS_WELL_ ---
*** files: xmldump
    saved to directory /home/lila/MD/topology_code/OpenMolcas_Calc/propane

--- Start Module: seward at Sat Nov 29 16:23:23 2025 ---

()()()()()()()()()()()()()()()()()()()()()()()()()()()()()()()()()()()()()()()()()()()()()()()()()()

                                              &SEWARD

                                   only a single process is used
                       available to each process: 2.0 GB of memory, 1 thread?
                                             pid: 26410
()()()()()()()()()()()()()()()()()()()()()()()()()()()()()()()()()()()()()()()()()()()()()()()()()()

               SEWARD will generate:
                  Multipole Moment integrals up to order  2
                  Kinetic Energy integrals
                  Nuclear Attraction integrals (point charge)
                  One-Electron Hamiltonian integrals
                  Velocity integrals
                  Orbital angular momentum around (  0.0115   0.0005   0.0747 )
                  Velocity quadrupole around (  0.0115   0.0005   0.0747 )
                  Two-Electron Repulsion integrals

                   Integrals are discarded if absolute value <: 1.00E-14
                   Integral cutoff threshold is set to       <: 1.00E-16

            Nuclear Potential Energy             82.70752835 au


      Basis set specifications :
      Symmetry species         a  
      Basis functions           23


      Input file to MOLDEN was generated!

--- Stop Module: seward at Sat Nov 29 16:23:25 2025 /rc=_RC_ALL_IS_WELL_ ---
*** files: propane.GssOrb propane.guessorb.h5 propane.guessorb.molden xmldump
    saved to directory /home/lila/MD/topology_code/OpenMolcas_Calc/propane
--- Module seward spent 1 second ---

*** symbolic link created: INPORB -> propane.GssOrb
--- Start Module: scf at Sat Nov 29 16:23:25 2025 ---

()()()()()()()()()()()()()()()()()()()()()()()()()()()()()()()()()()()()()()()()()()()()()()()()()()

                                                &SCF

                                   only a single process is used
                       available to each process: 2.0 GB of memory, 1 thread?
                                             pid: 26413
()()()()()()()()()()()()()()()()()()()()()()()()()()()()()()()()()()()()()()()()()()()()()()()()()()

++    Input section:
      --------------

      Header of the integral files:
      
       Integrals generated by Gateway/Seward, Sat Nov 29 16:23:24 2025


      Cartesian coordinates in angstrom:
      -----------------------------------------------------
      No.  Label        X            Y            Z        
      -----------------------------------------------------
       1   C1         1.25574700   0.11161500  -0.23318200
       2   C2         0.02548100  -0.19966500   0.57432500
       3   C3        -1.25692900   0.08919000  -0.18275000
       4   H4         1.60479700   1.15744100  -0.12557900
       5   H5         2.06797300  -0.56527800   0.08825200
       6   H6         0.99655800  -0.09285000  -1.29133300
       7   H7         0.04137200  -1.30287300   0.76111400
       8   H8         0.01767500   0.26855200   1.57542700
       9   H9        -1.98119100   0.56376800   0.51123200
      10   H10       -1.68628500  -0.82982900  -0.65173600
      11   H11       -1.08519800   0.79992900  -1.02577000
      -----------------------------------------------------
      Nuclear repulsion energy =   82.70752835
--

++    Orbital specifications:
      -----------------------

      Symmetry species               1
                                     a
      Frozen orbitals                0
      Occupied orbitals             13
      Secondary orbitals            10
      Deleted orbitals               0
      Total number of orbitals      23
      Number of basis functions     23
--

      Molecular charge                           0.000

++    Optimization specifications:
      ----------------------------

      SCF Algorithm: Conventional
      Minimized density differences are used
      Number of density matrices in core                 5
      Maximum number of NDDO SCF iterations            400
      Maximum number of HF SCF iterations              400
      Threshold for SCF energy change             1.00E-09
      Threshold for density matrix                1.00E-04
      Threshold for Fock matrix                   1.50E-04
      Threshold for linear dependence             1.00E-09
      Threshold at which DIIS is turned on        1.50E-01
      Maximum depth in the DIIS procedure                5
      Maximum depth in the BFGS Hessian update          30
      Threshold at which QNR/C2DIIS is turned on  7.50E-02
      Threshold for Norm(delta) (QNR/C2DIIS)      1.00E-03
      All orbitals punched on: SCFORB
--

      Input vectors read from INPORB
      Orbital file label: *Guess orbitals


++ Convergence information
                                   SCF        iterations: Energy and convergence statistics

Iter     Tot. SCF        One-elec.       Two-elec.     Energy      Max Dij or  Max Fij      DNorm      TNorm      AccCon     Time
         Energy          Energy          Energy        Change      Delta Norm                                                in Sec.
   1  -116.833518343  -320.047964038   120.506917350   0.00E+00    8.25E-02*   1.67E-01*    6.39E+00   4.78E+01   None         0.
   2  -116.868458728  -320.818978625   121.242991552  -3.49E-02*   1.23E-02*   9.65E-03*    4.08E-01   4.79E+01   EDIIS        0.
   3  -116.869783639  -320.679009971   121.101697987  -1.32E-03*   3.87E-03*   4.78E-03*    8.40E-02   4.79E+01   c2DIIS       0.
   4  -116.869865809  -320.710528921   121.133134768  -8.22E-05*   9.05E-04    3.62E-04*    1.19E-02   4.79E+01   QNRc2DIIS    0.
   5  -116.869867743  -320.699181022   121.121784935  -1.93E-06*   1.72E-04    1.52E-04*    6.99E-04   4.79E+01   QNRc2DIIS    0.
   6  -116.869867847  -320.700757834   121.123361642  -1.04E-07*   3.07E-05    1.98E-05     8.77E-05   4.79E+01   QNRc2DIIS    0.
   7  -116.869867849  -320.700976664   121.123580470  -2.30E-09*   2.90E-06    9.52E-07     2.17E-05   4.79E+01   QNRc2DIIS    0.
   8  -116.869867849  -320.700975215   121.123579020  -1.58E-11    4.56E-07    1.81E-07     1.12E-04   4.79E+01   QNRc2DIIS    0.

       Convergence after   8 Iterations
--

 *****************************************************************************************************************************
 *                                                                                                                           *
 *                                             SCF/KS-DFT Program, Final results                                             *
 *                                                                                                                           *
 *                                                                                                                           *
 *                                                                                                                           *
 *                                                       Final Results                                                       *
 *                                                                                                                           *
 *****************************************************************************************************************************

::    Total SCF energy                               -116.8698678494
      One-electron energy                            -320.7009752149
      Two-electron energy                             121.1235790205
      Nuclear repulsion energy                         82.7075283450
      Kinetic energy (interpolated)                   115.8628231197
      Virial theorem                                    1.0086916985
      Total spin, S(S+1)                                0.0000000000
      Total spin, S                                     0.0000000000
      Max non-diagonal density matrix element           0.0000002621
      Max non-diagonal Fock matrix element              0.0000000472


      All orbitals with orbital energies smaller than  E(LUMO)+0.5 are printed

++    Molecular orbitals:
      -------------------

      Title: SCF orbitals

      Molecular orbitals for symmetry species 1: a  

          Orbital            1         2         3         4         5         6         7         8         9        10    
          Energy          -11.0387  -11.0337  -11.0315   -1.0171   -0.8825   -0.7567   -0.5937   -0.5675   -0.5116   -0.5048
          Occ. No.          2.0000    2.0000    2.0000    2.0000    2.0000    2.0000    2.0000    2.0000    2.0000    2.0000

        1 C1     1s        -0.0229    0.9916    0.0132   -0.1258    0.1560   -0.0895   -0.0073   -0.0113    0.0065   -0.0007
        2 C1     2s        -0.0069    0.0373    0.0006    0.3397   -0.4525    0.2797    0.0268    0.0358   -0.0224    0.0028
        3 C1     2px        0.0036   -0.0002    0.0001   -0.0627   -0.0234    0.1026    0.0852    0.3425   -0.0346   -0.0311
        4 C1     2py        0.0009   -0.0003   -0.0000   -0.0169    0.0065    0.0453    0.2602   -0.1336   -0.0983   -0.3933
        5 C1     2pz       -0.0024    0.0000   -0.0000    0.0313   -0.0038   -0.1161    0.1153    0.1442    0.3757   -0.0966
        6 C2     1s         0.9914    0.0236    0.0201   -0.1651   -0.0038    0.1441    0.0017    0.0298   -0.0054    0.0030
        7 C2     2s         0.0377   -0.0051   -0.0052    0.4450    0.0121   -0.4523   -0.0055   -0.1066    0.0199   -0.0128
        8 C2     2px        0.0000   -0.0036    0.0036    0.0029   -0.1743   -0.0011   -0.0160    0.0188    0.3176    0.0380
        9 C2     2py       -0.0004   -0.0009   -0.0008    0.0129    0.0000    0.0644    0.3165   -0.1861    0.0503    0.0161
       10 C2     2pz       -0.0002    0.0023    0.0022   -0.0506    0.0058   -0.1472    0.2114    0.2276   -0.0045   -0.0147
       11 C3     1s        -0.0188   -0.0136    0.9917   -0.1182   -0.1608   -0.0902   -0.0034   -0.0143   -0.0022    0.0007
       12 C3     2s        -0.0067   -0.0005    0.0370    0.3198    0.4671    0.2823    0.0112    0.0461    0.0078   -0.0031
       13 C3     2px       -0.0037   -0.0001   -0.0000    0.0616   -0.0211   -0.1097   -0.0628   -0.3042   -0.0024   -0.0209
       14 C3     2py        0.0008    0.0000    0.0002   -0.0099    0.0004    0.0469    0.2340   -0.1160    0.1430    0.3753
       15 C3     2pz       -0.0021   -0.0000   -0.0001    0.0283    0.0056   -0.1142    0.1508    0.0935   -0.3904    0.1482
       16 H4     1s         0.0002   -0.0067   -0.0001    0.0726   -0.1336    0.1327    0.2355    0.0113   -0.0706   -0.3607
       17 H5     1s         0.0003   -0.0068   -0.0002    0.0732   -0.1435    0.1020   -0.0405    0.3297    0.1228    0.1783
       18 H6     1s         0.0002   -0.0068   -0.0003    0.0806   -0.1235    0.1493   -0.1365   -0.1507   -0.2998    0.1539
       19 H7     1s        -0.0068   -0.0001   -0.0001    0.0988    0.0024   -0.1998   -0.2265    0.1477   -0.0309   -0.0252
       20 H8     1s        -0.0068   -0.0001   -0.0000    0.0967    0.0061   -0.2155    0.2593    0.0557    0.0193   -0.0083
       21 H9     1s         0.0002    0.0001   -0.0068    0.0681    0.1454    0.1061    0.1928    0.1958   -0.1657    0.2446
       22 H10    1s         0.0003    0.0001   -0.0067    0.0685    0.1383    0.1238   -0.1803    0.1667    0.0392   -0.3384
       23 H11    1s         0.0002   -0.0001   -0.0067    0.0728    0.1268    0.1584    0.0247   -0.1508    0.3381    0.1130

          Orbital           11        12        13        14        15        16        17        18        19        20    
          Energy           -0.4423   -0.4305   -0.4165    0.5819    0.6077    0.6517    0.6776    0.7044    0.7387    0.7694
          Occ. No.          2.0000    2.0000    2.0000    0.0000    0.0000    0.0000    0.0000    0.0000    0.0000    0.0000

        1 C1     1s         0.0148    0.0247    0.0052    0.0156   -0.0396    0.0397    0.0730    0.0611   -0.1400    0.1374
        2 C1     2s        -0.0585   -0.0949   -0.0226   -0.0901    0.2341   -0.2319   -0.4627   -0.3897    0.8847   -0.8532
        3 C1     2px        0.0455    0.4201   -0.0302   -0.0071   -0.0850    0.6165   -0.4447   -0.3264    0.2426    0.3148
        4 C1     2py        0.0050    0.0175    0.2662    0.3836    0.1622   -0.0664    0.3480   -0.7240    0.0779   -0.0294
        5 C1     2pz       -0.3495   -0.0431   -0.0090   -0.1799    0.5348    0.2942    0.4084    0.1035   -0.2473   -0.0335
        6 C2     1s         0.0144    0.0008    0.0058   -0.0089   -0.0056    0.0125    0.1143    0.0444   -0.0023   -0.2133
        7 C2     2s        -0.0605   -0.0019   -0.0231    0.0471    0.0509   -0.0664   -0.7053   -0.2820    0.0126    1.3140
        8 C2     2px        0.0305   -0.4166    0.0894   -0.0512   -0.1248    0.6437   -0.0536   -0.1230   -0.0321   -0.0652
        9 C2     2py       -0.0424   -0.0740   -0.4256    0.7057    0.0396    0.0209    0.0166   -0.0249   -0.1218    0.1495
       10 C2     2pz        0.4419    0.0250   -0.0186   -0.0118    0.6233    0.1936   -0.0683    0.0233   -0.0034   -0.0883
       11 C3     1s         0.0222   -0.0189    0.0124    0.0401   -0.0251   -0.0530    0.0752    0.0596    0.1545    0.1438
       12 C3     2s        -0.0876    0.0723   -0.0514   -0.2314    0.1527    0.3068   -0.4711   -0.3723   -0.9718   -0.8888
       13 C3     2px       -0.1312    0.4238   -0.1210   -0.0620   -0.1937    0.7101    0.4408    0.1161    0.3387   -0.2619
       14 C3     2py        0.0438    0.0849    0.2892    0.5256   -0.1633    0.1710   -0.3994    0.4420   -0.0793   -0.1584
       15 C3     2pz       -0.3097   -0.0514   -0.0085   -0.0018    0.5690   -0.0120    0.0018    0.4698    0.3194   -0.2556
       16 H4     1s        -0.0421    0.1032    0.2651   -0.3457   -0.3144   -0.0298   -0.0443    0.8810   -0.4833    0.3029
       17 H5     1s        -0.0984    0.2646   -0.2088    0.3606   -0.1167   -0.4962    0.5969   -0.0614   -0.4129    0.1699
       18 H6     1s         0.3278   -0.0893   -0.0489   -0.0308    0.4553    0.5346    0.4889    0.0578   -0.5603    0.3675
       19 H7     1s         0.0936    0.0760    0.4368    0.7386   -0.0720    0.0309    0.2999    0.0396   -0.1152   -0.4020
       20 H8     1s         0.3695   -0.0165   -0.2361   -0.3726   -0.6173   -0.1693    0.3329    0.0972    0.0387   -0.5672
       21 H9     1s        -0.1258   -0.2606    0.1830   -0.1519   -0.5128    0.2692    0.6282   -0.2313    0.4461    0.4383
       22 H10    1s         0.1068   -0.1894   -0.2341    0.5558   -0.0534    0.2485    0.0199    0.7063    0.5725    0.0884
       23 H11    1s         0.2286    0.2030    0.1759   -0.2663    0.5001   -0.3990    0.3195    0.1928    0.6393    0.3090

          Orbital           21        22        23    
          Energy            0.7827    0.7961    0.8435
          Occ. No.          0.0000    0.0000    0.0000

        1 C1     1s         0.0907    0.0036    0.0642
        2 C1     2s        -0.5661   -0.0225   -0.4132
        3 C1     2px       -0.0195    0.5457    0.2891
        4 C1     2py        0.0833   -0.3070    0.5509
        5 C1     2pz       -0.7053    0.2161    0.1260
        6 C2     1s        -0.0054    0.0484   -0.0320
        7 C2     2s         0.0356   -0.3203    0.1909
        8 C2     2px        0.8710    0.0026    0.2131
        9 C2     2py        0.1641    0.5903   -0.5355
       10 C2     2pz        0.0880   -0.6188   -0.6744
       11 C3     1s        -0.0590    0.0199    0.0080
       12 C3     2s         0.3631   -0.1290   -0.0483
       13 C3     2px        0.1543   -0.3963   -0.2685
       14 C3     2py       -0.3990   -0.3844    0.4184
       15 C3     2pz        0.5579    0.1666    0.4334
       16 H4     1s         0.2259    0.0733   -0.3450
       17 H5     1s         0.4408   -0.5517    0.2380
       18 H6     1s        -0.3492    0.2177    0.3808
       19 H7     1s         0.0766    0.6826   -0.4077
       20 H8     1s        -0.1303    0.3628    0.6035
       21 H9     1s        -0.2040   -0.1324   -0.4845
       22 H10    1s        -0.1861   -0.3194    0.3521
       23 H11    1s         0.4086    0.4197    0.0835
--


++    Molecular charges:
      ------------------

      Mulliken charges per centre and basis function type
      ---------------------------------------------------

                C1      C2      C3      H4      H5      H6      H7      H8      H9      H10     H11   
      1s       1.9921  1.9920  1.9921  0.9464  0.9466  0.9455  0.9541  0.9492  0.9479  0.9487  0.9517
      2s       1.1856  1.1705  1.1897  0.0000  0.0000  0.0000  0.0000  0.0000  0.0000  0.0000  0.0000
      2px      0.9806  0.9448  0.9799  0.0000  0.0000  0.0000  0.0000  0.0000  0.0000  0.0000  0.0000
      2pz      0.9958  0.9770  0.9919  0.0000  0.0000  0.0000  0.0000  0.0000  0.0000  0.0000  0.0000
      2py      1.0080  1.0048  1.0050  0.0000  0.0000  0.0000  0.0000  0.0000  0.0000  0.0000  0.0000
      Total    6.1621  6.0891  6.1587  0.9464  0.9466  0.9455  0.9541  0.9492  0.9479  0.9487  0.9517

      N-E     -0.1621 -0.0891 -0.1587  0.0536  0.0534  0.0545  0.0459  0.0508  0.0521  0.0513  0.0483

      Total electronic charge=   26.000000

      Total            charge=   -0.000000
--


++    Molecular properties:
      ---------------------

      Charge (e):
                      =   -0.0000
      Dipole Moment (debye):
      Origin of the operator (angstrom)=    0.0000    0.0000    0.0000
                   X=  9.5328E-03               Y= -3.4531E-02               Z=  1.0110E-02           Total=  3.7222E-02
      Quadrupole Moment (debye*angstrom):
      Origin of the operator (angstrom)=    0.0061    0.0003    0.0395
                  XX= -2.1061E+01              XY=  1.5890E-02              XZ=  8.0163E-02              YY= -2.0242E+01
                  YZ=  2.0092E-01              ZZ= -2.0385E+01
      In traceless form (debye*angstrom)
                  XX= -7.4823E-01              XY=  2.3834E-02              XZ=  1.2025E-01              YY=  4.8140E-01
                  YZ=  3.0138E-01              ZZ=  2.6683E-01
--


      Input file to MOLDEN was generated!

 ###############################################################################
 ###############################################################################
 ###                                                                         ###
 ###                                                                         ###
 ###    WARNING: RunFile label nBas                                          ###
 ###    was used       72 times                                              ###
 ###                                                                         ###
 ###                                                                         ###
 ###############################################################################
 ###############################################################################
--- Stop Module: scf at Sat Nov 29 16:23:25 2025 /rc=_RC_ALL_IS_WELL_ ---
*** files: propane.scf.molden propane.ScfOrb propane.scf.h5 xmldump
    saved to directory /home/lila/MD/topology_code/OpenMolcas_Calc/propane

.##################.
.# Happy landing! #.
.##################.

    Timing: Wall=2.38 User=1.84 System=0.51
