22
 energy: -32.969331479133 gnorm: 0.000399760032 xtb: 6.7.1 (edcfbbe)
C           -0.68122551274363        1.85686525111593       -0.64341824042756
C           -0.54462999285908        3.33517352001153       -0.30896979193282
H           -0.49709927297824        3.47194606940198        0.76972884466819
H            0.34660314457446        3.75526212391543       -0.76926914304771
N            0.49745493993286        1.15887254943555       -0.14117575082371
H           -1.41970718850833        3.86502349075131       -0.67276616433706
H           -3.87126366710137       -1.13117217611186       -0.57177737126973
C           -2.07566881828941        1.34533767947168       -0.19575177224584
H           -3.33165202694699       -1.28163144154094        1.11511369966661
C            0.83784565037127       -0.14138292280568       -0.21510491826582
H           -0.68945142290320        1.73312277400943       -1.73961974013941
O           -2.97534833640272        2.13817208246403        0.00513462791377
N           -2.19795851249335        0.02099206123917       -0.05091589815630
H            2.93903966562104        0.17967016598162        0.12492964479533
H            1.07419168617665        1.73415336029056        0.45550748521393
C           -3.46364728706050       -0.58797716459637        0.28351820966213
H            2.02605488097919       -0.30516041796636        1.56173609243884
H            2.39636035228817       -1.49871221797538        0.30730995160315
H           -4.15601210646803        0.20212197170014        0.57052927840901
O            0.19858079328643       -0.98727909562189       -0.81852840426986
H           -1.45908072971696       -0.58760525619633       -0.39802753211648
C            2.13868108794911       -0.45965633708646        0.49033236343939
